  1.6929901e+00   4.0730845e-02
 -4.8476654e-01   6.4530507e-02
  3.4643969e-01   2.7673515e-02
  7.0712429e-01   5.7738475e-03
 -9.2479748e-01   5.9390138e-03
 -1.1891493e-01   3.0703086e-02
 -1.1728381e-01   3.3614319e-02
 -1.9976176e+00   1.1773771e-02
 -2.0928646e-02   2.8070685e-02
  8.2345670e-01   2.9602764e-02
 -1.8349926e+00   3.8874205e-02
  3.2151303e-01   2.8141433e-02
 -1.0342479e+00   3.6494061e-02
  1.4050019e+00   6.7150116e-02
  1.5307604e+00   4.9371631e-03
  4.4710061e-01   6.5318719e-02
 -1.5363002e-01   6.4782375e-03
 -9.8839718e-01   1.7498013e-02
 -3.1576139e-01   1.1549139e-02
  1.6815963e-01   3.7589062e-02
 -6.3313603e-01   1.5984459e-02
  2.3099871e+00   4.4940758e-02
  3.1403634e-01   2.0442976e-02
  1.8286979e+00   4.1400511e-02
  1.1398363e+00   5.2350640e-02
  4.8290110e-01   4.3358944e-02
 -1.6738525e-01   3.8302615e-02
 -9.4465917e-01   2.1257369e-02
  4.6500235e+00   7.5504757e-03
 -8.7614216e-02   2.0560723e-02
  4.8457053e-02   7.5606140e-03
  3.4163077e+00   4.2071505e-03
  2.1392589e+00   3.3009741e-02
 -1.9531949e-01   8.6661000e-03
 -1.5084467e+00   1.8906750e-02
  3.0684888e+00   2.0299448e-02
 -3.2553601e-01   9.8227914e-03
  2.2593658e+00   1.6642369e-02
  1.2962098e+00   9.4477087e-03
 -2.4401249e-01   2.5639093e-02
 -6.5356159e+00   3.7937884e-03
 -1.4818856e+00   1.4768545e-02
  1.4130468e+00   2.6385530e-03
 -6.1668694e-01   1.9812170e-02
 -1.0549687e+00   3.9525675e-03
  2.3835881e+00   1.1141459e-02
  1.0468054e+00   1.0120046e-02
 -1.5428271e+00   8.2296627e-03
 -3.5724466e+00   2.0426125e-03
 -2.9535675e+00   7.7000661e-03
 -5.5762799e-04   7.8362469e-03
 -1.4876665e+00   5.8942852e-03
  2.6861475e+00   1.0322331e-02
 -2.3807466e+00   2.4159890e-02
  2.3832707e+00   1.3286310e-02
  1.0748305e+00   5.7013277e-03
 -2.5626409e-01   1.0747892e-01
  1.5730991e+00   3.7912685e-02
 -2.6308508e+00   4.7418468e-02
  1.5277745e+00   2.1928897e-02
  2.3879550e+00   2.6587248e-02
 -4.5005807e-01   3.8308986e-02
 -5.3332263e-01   3.2632623e-02
  2.3525357e+00   8.9344997e-03
  9.3296659e-01   5.2708931e-02
 -1.8410693e+00   5.2641153e-02
 -5.8984697e-01   5.5567861e-02
  1.2287091e+00   8.1841193e-02
 -1.1557425e+00   4.4800762e-02
  7.3396856e-01   8.7110186e-03
  1.8152688e+00   1.0891099e-02
  4.3254164e-01   4.2101219e-02
 -1.4096630e-01   4.1735601e-02
 -5.9093821e-01   1.9740922e-02
  5.1683390e-01   3.9466310e-02
 -1.6775836e-01   4.7130346e-02
  1.6689508e+00   1.1317551e-02
 -4.8045033e-01   1.8336209e-02
  3.4157075e-02   6.9607697e-02
  4.8171490e-01   6.5734580e-02
 -2.1040224e-01   7.1230531e-02
 -4.8859116e-01   3.9413195e-02
  5.7949264e-02   5.5041332e-02
 -1.5209232e-01   3.4846298e-02
  6.9270945e-01   2.4157107e-02
 -2.8903325e+00   5.4183107e-02
  4.6824080e-01   2.6951639e-02
  2.2551365e+00   7.8107012e-03
  5.3141278e-01   2.2186572e-02
  3.4964579e-01   3.3506151e-02
 -1.0028446e-01   5.9014600e-02
  4.2054269e-01   5.3296413e-02
 -3.0093513e+00   7.0278128e-03
  5.1606178e-01   2.4532275e-02
  1.5763685e+00   7.8244535e-03
  1.4112864e+00   1.8239791e-02
 -1.6312509e+00   1.1795143e-02
 -5.9499300e-01   2.2661952e-02
  3.6822734e+00   1.2180168e-02
 -7.7357233e-01   5.8975689e-02
  1.0204623e+00   1.1481102e-02
  8.7121618e-01   8.3788522e-03
  4.3432933e-01   9.3599800e-03
  1.1753747e-01   2.5496611e-02
  8.4617031e-01   1.2722373e-02
  1.9724574e+00   2.2021743e-02
 -8.9950407e-01   1.6131628e-02
 -3.4768793e-01   1.3116522e-02
  9.6623015e-01   3.4879241e-02
 -2.7393067e+00   1.6647482e-02
 -3.1099341e+00   3.3558059e-02
 -3.3433325e+00   1.6118702e-02
  1.8015366e+00   9.1305403e-03
 -6.5837884e-03   2.1144947e-02
 -2.2198420e+00   3.8121521e-02
 -2.3357656e+00   9.7589679e-03
 -1.1214225e+00   3.8118489e-02
 -3.0161297e-01   4.5284089e-02
  1.8957709e-01   2.2457967e-02
 -9.4231099e-01   2.1957863e-02
 -1.1085442e+00   8.3181642e-02
  6.0022831e-01   2.4604712e-02
 -1.8067135e+00   2.4958605e-02
 -1.5284601e+00   5.8532160e-02
 -2.6697667e+00   1.7130382e-02
 -2.4819775e+00   2.1064786e-02
  2.7529478e+00   7.0827142e-03
 -1.0248863e+00   1.7408272e-02
  2.1766821e-01   1.2444441e-02
 -4.8606944e-01   1.5614050e-02
 -2.6145346e+00   1.8595938e-02
 -3.9849225e-01   1.8902192e-02
 -1.6396445e+00   1.2059281e-02
 -4.2450228e+00   1.8470565e-02
 -6.8781787e-01   3.2615148e-02
 -5.8743143e-01   2.8824680e-02
 -1.5632195e+00   1.7345442e-02
 -1.1261054e+00   3.8208175e-02
  6.5529054e-01   2.4941342e-02
  1.4581716e+00   3.1327639e-02
  4.5053411e-02   2.3345174e-02
 -2.2095907e-01   3.4404796e-02
 -6.7136455e-01   1.6516457e-01
 -2.4096771e-01   9.3680374e-02
  3.4546517e-02   2.2659908e-01
  9.0433049e-01   1.0568202e-02
 -3.9090896e-01   1.2654495e-01
  1.3514781e-01   5.8351617e-02
  3.4080544e-01   2.5671102e-02
  4.0254053e-01   6.8425201e-02
  4.7965294e-01   9.7204139e-03
  7.9920852e-01   8.8988610e-02
 -2.5604102e-01   1.0439031e-01
 -9.2926633e-01   3.1961754e-02
  2.5344851e+00   3.9451625e-02
  5.1619077e-01   1.7096230e-01
  1.0875270e-01   2.5517853e-02
 -3.2506723e+00   2.0436322e-02
  9.6517050e-01   4.9682312e-02
 -8.2867101e-02   6.8617083e-02
  1.5311599e+00   2.5624523e-02
 -6.9786340e-01   1.3756533e-01
  4.9295911e-01   4.7066256e-02
  1.1096405e-01   1.0256270e-01
 -7.9781312e-01   4.3086428e-02
  1.1012433e+00   5.1166568e-02
  1.2977599e+00   6.8455368e-02
 -2.8717360e-01   3.3679500e-02
 -3.1423753e-01   1.2115714e-01
 -5.6237441e-01   1.0772032e-01
 -4.5793414e-01   2.1409228e-02
 -2.2744007e-02   6.2037356e-02
  8.0658078e-01   4.1917577e-02
  4.9890918e-01   8.7661408e-02
  4.3543428e-01   1.3836303e-01
  1.0365650e-01   1.0434879e-01
 -8.2287759e-01   3.7963010e-02
 -1.6521665e-01   4.4225466e-02
 -1.1789323e+00   6.1144575e-02
 -1.5392268e-01   4.4510640e-02
  3.0715518e-02   8.0484532e-02
 -1.4231544e+00   1.3794476e-01
 -8.7127107e-01   1.4299810e-02
 -2.2859117e-01   1.3116948e-01
  1.5719141e+00   4.8234496e-02
 -1.5924362e+00   4.9154863e-02
  1.8322010e-01   6.2976360e-02
  1.0926356e+00   6.9950439e-02
  1.0730129e+00   3.6266837e-02
 -4.1823968e-02   7.9419993e-02
  8.0937845e-01   2.6449252e-02
  4.5548928e-01   9.4351955e-03
 -5.0617594e-01   3.5685752e-02
  7.4141675e-01   7.7019192e-02
 -1.4173419e+00   3.2827426e-02
  3.5709900e-01   1.2747025e-01
 -1.1440561e+00   4.1962277e-02
  9.0002501e-01   2.1022322e-02
  3.4321153e-01   3.0059820e-02
 -8.9067227e-01   1.3615637e-02
 -1.6402675e+00   6.2648810e-02
  3.7017167e-01   4.6780404e-02
 -3.4535573e+00   1.7639387e-02
  5.2577263e-01   2.2879686e-02
 -9.0213883e-01   5.9092868e-02
  3.0821376e+00   2.2532936e-02
 -4.7826432e-02   2.2294981e-02
 -2.3562361e-01   6.9593951e-02
  2.2849429e-02   2.3298034e-02
  2.1920395e-01   6.7866981e-02
 -1.0698979e-01   5.0343061e-03
  7.2260791e-01   4.3008104e-02
  3.9495483e-01   3.9103873e-02
  2.4646522e-01   1.4202121e-02
  2.4982631e+00   5.0308522e-02
 -4.6414879e-01   4.4904232e-02
 -9.5919883e-01   1.8653799e-02
 -1.3788898e-01   1.4027046e-02
 -3.5809609e-01   2.7979512e-02
 -3.1599524e+00   2.7306456e-02
  2.5930591e+00   1.5595081e-02
  4.2718697e-01   8.2734421e-02
 -4.7917008e-02   8.3150370e-03
 -1.5592874e+00   6.0914777e-02
 -1.6067374e-01   9.3994595e-02
 -3.0396569e-01   2.3581397e-02
  1.1895236e+00   3.2349211e-01
 -6.4630246e-01   1.5106633e-01
  4.6600047e-01   6.9203630e-02
  1.0541441e+00   1.9022983e-01
  2.8593138e-01   1.5662855e-01
  6.9772154e-03   2.6090154e-02
 -4.9337012e-01   1.4974326e-01
 -8.3972454e-01   1.1047174e-01
 -3.8512757e-01   1.7703307e-01
 -1.1950730e+00   5.5601113e-02
 -8.4949791e-02   4.6926964e-02
 -4.9827433e-01   2.1049188e-01
  4.7378413e-02   5.7586860e-02
 -9.7331578e-01   2.1518674e-02
  4.6745440e-01   5.9328780e-02
  5.5897874e-01   1.1145789e-01
  2.4657042e-01   5.9247412e-02
  2.9661658e-01   5.4562274e-02
  6.5502793e-01   4.5303024e-02
 -5.8951724e-01   1.3671915e-02
 -1.1097379e-01   1.4124627e-01
  2.0230760e-01   2.8196314e-01
  1.7328253e-01   2.3222432e-01
  1.3164491e-02   6.7490235e-02
 -1.0263516e-01   3.4742057e-01
 -2.0975031e-01   1.6081932e-01
  3.1518083e+00   1.4331032e-02
 -1.0282867e+00   2.6449028e-02
  1.0242499e+00   3.3512712e-02
  8.1094587e-01   9.9183908e-03
 -1.8186239e+00   3.0135373e-02
 -1.4361187e+00   4.1955210e-02
  3.2606697e-01   2.1080215e-02
  2.2929800e+00   1.7514199e-02
 -1.3273579e+00   5.1905513e-02
  4.2684677e-01   3.6054954e-02
  4.2743465e-01   3.3381112e-02
  1.1606672e+00   2.1086039e-02
 -1.2739581e+00   6.4005643e-02
 -4.4382921e-01   3.5514377e-02
  1.4579302e+00   4.3802126e-03
 -1.3727685e+00   3.4744713e-02
  8.8642955e-01   2.5935244e-02
  1.1631336e+00   1.0243047e-02
  4.8300381e+00   9.6224770e-03
 -2.4014652e-01   8.7256385e-03
 -1.2569697e+00   3.7763396e-03
  3.0883641e+00   1.7698772e-02
  1.0319941e+00   1.6236680e-02
  3.0617490e-01   2.3456358e-03
  2.0278917e-01   3.8109723e-02
  8.7050307e-01   3.2389663e-02
 -1.9080604e+00   1.8996235e-02
 -2.5443032e+00   4.0025230e-02
 -1.4080128e-01   1.3466929e-01
  1.0122912e+00   3.8609590e-02
 -1.5321836e-01   8.5564673e-02
  1.3213412e-01   1.1080639e-01
  4.0456292e-01   9.7484790e-02
 -6.8624103e-01   1.6913399e-03
 -8.9039922e-02   7.1236148e-02
 -5.1067483e-01   1.0171495e-01
  5.9552926e-01   1.9672533e-02
 -2.5422338e-01   1.1528234e-01
 -3.7975547e-01   1.7660153e-01
  8.4832978e-01   1.1817892e-01
  2.0549273e-01   2.8866747e-02
 -1.5607129e-01   1.6266556e-01
  1.5153500e-01   6.7138582e-02
 -9.7994345e-01   9.5239967e-02
 -1.7156753e-01   3.6960259e-02
 -1.3995121e-01   1.5492058e-01
 -6.1406970e-02   1.3526095e-01
 -5.4892927e-01   1.4623764e-01
  1.5651342e-02   7.7709675e-02
  5.5808574e-01   7.8790940e-02
 -3.5345367e-01   3.0995194e-02
  1.1762007e-01   1.2384470e-02
 -1.3327149e-01   1.1986376e-01
  6.7589676e-01   1.0006836e-01
 -1.6863626e+00   3.5866745e-02
 -2.6005396e-01   4.4566542e-02
  2.4669102e-01   1.7157579e-02
 -7.2243655e-01   6.7649372e-02
  6.3269717e-01   3.0203823e-02
  8.4069741e-01   3.4311975e-03
 -1.7036855e-01   2.6045676e-02
 -1.1579617e+00   5.7950102e-02
 -7.7211612e-01   6.0600083e-02
  9.9216241e-01   1.9597555e-02
 -4.7492412e-01   2.0507764e-02
  2.0718473e-01   1.8486477e-02
 -4.2569503e-01   2.6345147e-02
  2.2098448e+00   4.2657454e-02
 -1.9747238e-01   3.5214487e-02
  7.8166634e-01   3.5796002e-02
 -1.4638861e+00   8.7283924e-03
 -1.1381772e+00   2.6384188e-02
  6.4849126e-01   3.2566723e-03
 -3.1218055e-01   1.5683258e-02
 -1.4541610e+00   7.5284219e-03
 -9.8754764e-01   3.5654183e-02
 -3.2442150e-01   6.8622716e-03
 -2.1623430e+00   2.0458052e-02
 -9.7858179e-01   3.0120866e-02
 -1.0396226e-01   1.0849780e-02
 -7.4981338e-01   1.1887879e-02
 -5.3499628e-02   4.2808145e-02
  7.4528056e-01   1.6342122e-02
 -1.7832190e+00   2.3678068e-02
  6.9008529e-01   1.1965781e-02
  9.7601883e-02   5.8705080e-02
 -3.3521494e-01   3.3517353e-02
 -9.4549769e-01   1.2828925e-02
 -1.3561515e+00   3.0663090e-02
  7.3915094e-01   9.4139889e-02
 -1.4193524e-01   5.5735171e-02
  1.3827878e-01   3.9319471e-02
  9.0817995e-02   1.6439233e-02
  4.5083380e-01   6.2432472e-02
  8.3829649e-02   3.2087937e-02
 -1.2224768e+00   1.1766423e-01
 -1.4597616e-01   2.2866379e-02
  5.6153625e-01   5.6241602e-02
 -2.4012662e-01   1.5072006e-02
 -8.7589361e-02   4.0260047e-02
  1.0161418e+00   3.4922533e-02
  1.1562650e+00   1.1516944e-02
 -9.7489059e-01   1.8348478e-02
 -2.8657612e-01   2.4318160e-02
  2.6188166e+00   1.9750701e-02
 -5.8918786e-01   1.6479274e-02
  5.0919956e-01   9.3308009e-02
 -7.7279848e-01   3.7889071e-03
  7.4400765e-01   1.7322408e-02
  8.1354147e-01   4.0602114e-02
 -1.1840789e-03   5.2347910e-02
  1.2362312e-01   2.6516858e-02
 -1.6627011e-01   5.4312788e-02
 -3.7103176e-01   7.3392126e-03
 -2.1111138e-02   6.4299464e-02
 -1.4901463e+00   2.0775808e-02
  2.8593736e-03   1.0893640e-01
 -3.7537423e-01   9.9864714e-02
 -1.3943869e-02   1.0998172e-01
  2.1841690e-02   5.6992304e-02
  5.0056532e-02   6.8053246e-02
  1.4188559e-01   6.1359130e-02
 -1.9708726e+00   6.5290265e-02
 -1.2029980e+00   5.1380504e-02
  6.0851890e-01   2.3366874e-01
  3.8213474e-01   4.6616774e-02
  8.5747200e-01   2.8637165e-02
  3.6036298e-01   1.3014735e-01
 -7.7102482e-01   4.0586986e-02
  1.1664348e+00   4.4257008e-02
 -7.1531373e-01   3.0049413e-02
 -3.4372535e-02   3.0503601e-02
 -2.7957535e-01   1.4432030e-02
  6.8018794e-02   3.6453489e-02
  7.6736277e-01   7.3651783e-03
 -1.4105430e-01   1.0703707e-01
 -1.7880330e+00   3.5420753e-02
 -3.3530271e-01   1.0836383e-01
 -2.6032152e-02   1.3817656e-01
  4.7382790e-01   5.9956431e-02
  1.2405069e+00   2.7128801e-02
 -9.1967380e-01   4.2396013e-02
 -5.4742688e-01   2.3241047e-02
 -1.1057762e+00   6.6832928e-03
  1.0028668e-02   3.1931147e-02
 -1.1600974e-01   2.8531082e-02
 -2.0335867e+00   3.2397136e-02
 -1.7479119e-01   1.6275417e-02
 -5.9280598e-01   3.0942842e-02
  1.5380999e+00   2.0673815e-02
  3.5238153e-01   1.2803816e-02
  1.0966437e+00   4.0112209e-02
  7.5685263e-02   2.5814407e-02
 -9.7755945e-01   1.8993430e-02
  9.0352345e-01   1.5754673e-03
  2.0500417e+00   3.2756755e-03
  1.4067571e+00   2.6543390e-02
 -2.1571934e-02   1.4079573e-02
 -6.5789741e-01   9.0273153e-03
 -1.0695191e-01   7.0120762e-03
 -7.2332036e-01   1.7432703e-02
  2.3581789e+00   1.1648905e-02
  1.0083411e+00   1.7247325e-02
 -3.2655641e-01   1.6373415e-02
  2.8080148e-01   1.3778423e-02
 -3.0045879e-01   3.4216259e-02
  5.9435762e-02   2.8947201e-02
 -3.4759083e-01   4.1999396e-02
  2.4138215e-01   9.2238814e-02
  1.6293521e+00   4.4529859e-02
 -1.3053620e-01   1.0177299e-01
 -5.5001819e-01   9.0394698e-02
 -5.6862986e-01   1.8128973e-01
 -6.8971831e-01   1.2802413e-01
 -1.2142036e-01   3.4784280e-02
  8.7226339e-02   4.3706495e-02
 -4.6872950e-01   1.7111082e-01
  4.1526002e-01   9.9757947e-02
 -1.3210121e-02   3.0115822e-02
 -3.8208026e-01   8.0153383e-02
  1.4764713e-01   1.7656922e-01
  2.0704690e-01   1.2817220e-01
 -4.0975308e-01   3.0632390e-02
  5.7047123e-01   1.3063779e-01
 -1.1722261e+00   2.1811740e-02
  3.4838593e-01   3.9437301e-02
  4.7223002e-01   1.5295896e-01
  1.5649478e-01   7.2576754e-02
 -5.8505762e-01   1.2186652e-01
 -7.8932256e-02   1.5457091e-01
  5.4231930e-01   1.7790900e-01
 -1.7765114e-01   2.1278730e-01
  5.9413314e-01   1.3801809e-01
  6.2024695e-01   2.8884493e-02
 -2.8189850e+00   5.6151204e-02
 -1.1704673e+00   2.1533304e-01
 -6.2697577e-01   1.8434474e-01
  3.0285394e+00   2.1852160e-02
 -7.8689098e-01   3.3714857e-02
 -9.1722292e-01   1.6329227e-02
  3.9049909e-01   3.4422614e-02
  6.3731480e-01   1.2830655e-01
  9.9711008e-02   3.2278489e-02
 -7.3464954e-01   1.1103152e-01
 -2.0953074e-01   6.2404685e-02
 -7.5153822e-01   1.5265092e-01
 -3.0096221e-01   4.6326820e-02
 -3.5042503e-01   2.2361229e-01
  4.5952147e-01   1.5681815e-01
 -4.6283275e-01   1.7664796e-01
 -4.2431840e-01   8.4925503e-02
  1.4368883e+00   8.9734033e-02
 -2.9507804e-01   2.7367260e-02
 -7.3174775e-01   3.4494631e-02
  1.9071583e-01   1.0990341e-01
 -1.6043814e+00   6.0380947e-02
  9.3404621e-02   5.9518190e-03
  1.5480284e-01   1.1054746e-01
  4.2713785e-01   2.3402946e-01
  4.2000040e-01   5.6165855e-02
 -2.5447494e-01   9.3660571e-02
  2.3508796e-01   1.5500548e-01
 -2.6312342e-01   1.8666166e-01
  2.2491064e+00   3.8219426e-02
 -2.0764751e+00   1.8584311e-02
  1.2364184e+00   6.3546516e-02
 -1.4315385e+00   3.4728635e-02
 -1.4701179e-01   6.1546648e-03
  8.1250483e-01   2.0282287e-02
  4.9458793e-01   6.4718239e-02
  1.5018051e-02   5.5689178e-02
  2.1587527e+00   4.0535409e-02
  4.2145216e-01   4.7752190e-02
 -1.8572243e-01   2.7495550e-02
 -1.4346174e+00   1.6427526e-02
  1.0300136e+00   5.2338592e-03
 -6.4198458e-01   7.7589445e-02
  1.0102241e-01   2.2993088e-02
  8.4622836e-01   1.1822402e-02
 -3.8230136e-01   1.9175736e-02
 -1.6593475e+00   1.1060143e-02
  1.9101800e+00   1.0283920e-02
  3.1490231e+00   1.3461003e-02
 -9.5100284e-01   3.6327116e-02
 -8.2445717e-01   9.3977228e-03
  1.4961374e+00   1.6226601e-02
  1.2184151e-01   6.0764462e-02
 -2.5393361e-01   2.3012500e-02
 -1.4337558e+00   2.2314357e-02
  1.0048244e+00   3.6909215e-02
  1.5294608e+00   5.3235367e-02
  1.9547895e+00   3.5108272e-02
  4.7110125e-01   2.6364600e-02
  6.5754408e-01   2.4494931e-02
  2.0785119e-01   8.3683670e-02
 -3.4860691e-01   2.0005990e-02
 -3.5958704e-01   1.6191652e-01
  1.3884333e-01   9.0588048e-02
 -7.0986730e-01   8.0990471e-02
 -1.0450266e-01   2.9836707e-02
 -7.1691805e-01   1.5094129e-02
  2.6039371e-01   1.3390677e-01
  4.8157197e-01   1.3046981e-01
  6.2125504e-02   4.4823427e-02
  9.2645448e-01   1.1874475e-01
 -1.4631200e+00   8.6037628e-03
 -6.4905053e-01   9.7685196e-02
 -1.0836940e-01   1.7576797e-01
 -1.2119950e-01   5.9781186e-02
  3.5417855e-02   1.0842978e-01
  4.9249074e-01   1.0872371e-02
 -3.4010020e-01   8.9580961e-02
 -1.1768039e-01   7.7252716e-02
  3.9990458e-01   1.5109533e-01
 -9.9796069e-01   6.6016026e-02
 -2.0612545e-02   6.9392063e-02
  2.0774606e-01   1.2831280e-01
 -6.0977858e-01   1.1794885e-01
  1.1897645e+00   4.0159401e-02
 -4.8922491e-01   1.3021746e-01
  1.0121492e+00   3.9530318e-02
  4.4596577e+00   3.8449615e-02
  1.5774827e-01   3.3226576e-02
  7.0910043e-01   1.8467762e-02
 -1.8615241e-01   5.5252932e-02
  6.8575330e-02   3.8928948e-02
 -3.1468909e-02   4.9944483e-02
 -7.8456730e-02   3.5959132e-02
  5.1134640e-01   3.4150034e-02
 -1.2688527e+00   2.2034300e-02
  3.9431345e-02   3.6213651e-02
 -1.4644442e-01   4.4808285e-03
 -7.2391182e-02   3.4878697e-02
  3.9147648e-01   1.9928420e-02
 -9.5470136e-01   8.6510517e-03
 -1.2620014e-01   2.6655221e-02
 -1.0581939e+00   2.7234089e-02
  3.2877598e+00   1.5006902e-02
 -3.0185023e-01   2.5387047e-02
  5.0335848e-01   5.5605471e-02
 -6.3125843e-01   5.3907926e-03
 -1.0778874e+00   4.5541447e-02
 -1.2150037e+00   2.8980475e-02
 -5.9385872e-01   3.6478262e-02
 -7.0741013e-02   2.8012980e-02
 -3.2386820e+00   2.5068993e-02
 -6.0264933e-01   6.6162996e-02
  1.1774701e+00   4.9254671e-02
 -3.7848482e+00   2.9185480e-02
 -5.5977052e-01   8.2922634e-03
 -1.1244300e-01   3.7990741e-02
 -3.1158003e-01   2.9949604e-03
  3.3112359e-01   5.7639811e-02
  2.4724472e+00   2.7141392e-02
 -2.2361975e+00   2.8773932e-02
 -1.4981086e+00   2.4757233e-02
  7.4626043e-02   3.7704393e-02
 -1.0557063e+00   1.8893702e-02
  1.9022747e+00   1.1029242e-02
  8.8289565e-01   3.5177168e-02
  4.8483542e-01   1.4973254e-02
 -3.2746589e+00   3.9039675e-02
  1.2425209e+00   2.5388284e-03
 -1.0021561e-01   1.2033862e-02
 -1.9148083e+00   1.3223400e-02
 -4.0801901e-01   1.9987984e-02
 -1.4773070e+00   2.1875219e-02
 -1.7353626e+00   2.1355648e-02
  3.5778835e-01   7.5838263e-03
  1.0879471e+00   1.0798601e-02
 -8.6083159e-02   1.4453989e-02
 -4.2724654e-01   1.1466504e-02
 -1.6256865e+00   1.8357316e-02
 -2.2317731e+00   3.0584389e-02
  1.8306265e+00   3.1642884e-02
  1.4981687e+00   1.8189328e-02
  5.5519444e-01   1.4009299e-02
 -1.0689890e-01   5.6228194e-02
 -1.9839587e-02   1.6009203e-01
 -4.5123601e-01   5.0874852e-02
  5.3317122e-02   1.6851930e-01
  4.3671492e-01   1.0504463e-01
 -1.2079926e+00   2.5709701e-01
 -8.0352497e-01   5.5410312e-03
 -2.8268626e-01   5.4043349e-02
 -1.1865312e-01   3.3564884e-02
  1.6799949e-01   8.6243756e-02
 -9.1368061e-01   1.5076080e-01
 -3.6800542e-01   1.9677572e-01
  3.3679247e-01   9.4469348e-03
  3.1496418e-01   1.3698144e-02
  3.9674592e-01   1.5773008e-02
  9.3738779e-02   5.4435477e-02
  5.1921499e-01   1.4976620e-02
 -2.2601098e-01   9.9370658e-02
 -3.8640785e-01   1.4151573e-01
  2.1888895e-01   3.3623327e-02
 -1.8146208e-01   8.2776263e-02
 -1.3588276e+00   2.4872623e-02
 -1.4492948e-01   6.5333828e-02
 -4.7186177e-02   1.3035025e-01
 -1.2421339e+00   2.1144187e-02
  1.1027955e-01   1.7801450e-01
 -1.8281336e-01   1.0558470e-01
 -1.5342786e+00   2.7274759e-02
 -4.3604726e-01   7.5561315e-02
  2.3387666e-01   7.5936012e-02
  3.4144637e-01   1.5990834e-01
 -1.5013571e-01   3.7492134e-02
 -3.6801942e-02   3.4257390e-02
 -2.5948748e-01   1.1394727e-01
  3.7576342e-01   3.9134841e-02
 -1.2355492e-01   1.1976386e-01
 -4.6707168e-01   3.9646430e-03
  1.5640169e-01   9.8012984e-02
 -5.3496122e-01   5.7591319e-02
 -4.4379964e-01   2.5914592e-01
 -8.6785090e-01   1.6436754e-02
  5.5264100e-02   2.4927918e-02
  1.3796552e-01   1.4802516e-01
  7.0999265e-02   1.3958402e-01
 -7.4177995e-02   9.6858114e-02
 -7.0574582e-01   1.7727800e-02
 -4.6996355e-01   4.3782316e-02
 -7.8060210e-01   1.7201169e-01
  3.2147462e+00   4.4101682e-02
 -2.4217910e-01   7.0518166e-02
 -1.9025744e-01   1.6800486e-01
  4.8614770e-02   2.3904512e-02
  1.0430129e+00   2.5304435e-02
  2.4621889e-01   7.4204497e-02
  1.5201721e-01   2.5026283e-01
 -9.2223459e-01   9.7006839e-03
  3.0444760e+00   1.0310535e-02
  6.1845523e-01   2.0153711e-02
 -6.5817040e-01   2.7486833e-03
  1.0333787e+00   1.2512809e-02
 -5.0458878e-01   2.0325501e-02
  5.4832643e-01   1.0941688e-02
  6.8178460e-02   1.7236600e-02
  9.4257587e-01   1.2338081e-02
  3.5407960e-01   1.5044584e-02
  4.0021143e+00   3.5991762e-03
 -1.1606603e+00   7.9929549e-03
  9.3933392e-01   6.5862830e-03
  1.1864243e-01   2.9875716e-02
 -4.3112433e-01   3.2274243e-03
  1.1732696e+00   4.5286403e-03
  2.0692281e-01   5.2446276e-03
 -1.7346487e+00   4.8710667e-03
  1.0611452e+00   2.4160324e-03
 -1.6022536e+00   6.7074965e-03
 -8.0277735e-01   3.6577152e-03
  1.2784585e-01   5.8906246e-03
  2.1359737e+00   8.4521156e-03
 -5.4528046e-01   1.0453672e-02
 -1.7817469e+00   8.8096671e-03
  1.0289366e+00   1.0982919e-02
  7.0106554e-01   2.0212123e-02
 -1.0247377e+00   4.2060013e-03
  7.5623333e-01   7.6526389e-02
  1.5472381e+00   5.3597316e-02
  8.1284124e-01   8.5342370e-02
  4.7024110e-01   4.6218555e-02
  1.6170157e+00   2.8584508e-02
 -8.1170094e-01   1.7232287e-01
 -3.4110758e-01   8.3600633e-02
  5.2884007e-01   1.4452358e-01
  9.6882999e-01   7.9678759e-02
 -6.1907721e-01   5.1922947e-02
  5.2514547e-01   5.0569203e-02
 -1.6657337e+00   5.9805624e-02
  5.9217807e-02   7.9801306e-02
  1.0021807e+00   5.2338950e-02
  1.1906022e+00   3.6351580e-02
  2.4051812e-01   2.7898682e-02
  1.2605780e-01   7.3024794e-02
  4.9377498e-01   8.3167687e-02
 -7.4069130e-01   2.4255274e-02
  4.1375837e-01   9.7071864e-02
  3.1281583e+00   4.1976094e-02
 -2.3483050e-01   4.9754649e-02
 -3.6990830e-01   1.7245857e-01
  4.5695525e-01   2.2692705e-02
 -1.7257005e+00   3.6576711e-02
 -4.8338987e-02   1.2396847e-01
  4.4410980e-01   2.2856760e-01
 -2.6818278e+00   1.3142793e-02
 -6.6113925e-01   2.2933660e-03
  1.7902462e+00   9.3564512e-03
 -1.9392481e+00   5.3518447e-03
 -2.3090611e+00   2.7932047e-03
 -2.0259089e+00   1.1397700e-02
 -2.9854980e-01   8.4420675e-03
  5.5735183e+00   1.4127193e-02
  1.0603888e+00   4.5893383e-03
 -1.0168278e-01   8.8197105e-03
 -3.0557030e-01   1.6130149e-02
  4.0988374e-01   6.7759026e-03
  1.7301539e+00   1.3294115e-02
 -2.4837792e+00   2.3555035e-02
  6.9384165e-02   1.0816489e-02
  3.2482067e-01   2.1397076e-03
 -2.4085175e-01   5.6277229e-03
 -1.8389977e+00   6.1825216e-03
 -8.9519310e-01   4.6680062e-03
  6.1542332e-01   6.2524248e-03
  2.5226090e+00   1.3731191e-02
  1.2130889e+00   3.5314865e-03
 -2.8037177e-02   7.7932351e-03
 -9.0759927e-01   8.8883713e-03
 -1.2328936e+00   6.6970638e-03
 -1.4674497e+00   4.6701175e-03
 -2.2391115e-01   7.7051381e-03
  1.3998945e+00   1.1396688e-02
 -4.8739821e-01   5.9354831e-03
  1.9428043e+00   1.6049637e-02
  3.9503682e-01   2.2846277e-01
 -5.3262168e-01   9.1221377e-02
  4.0205568e-04   7.2292089e-02
  6.0115260e-01   3.1305242e-02
 -1.7273240e-02   1.0113972e-01
  3.5750607e-01   8.0395900e-02
 -9.9598795e-02   7.9806171e-02
 -2.6609567e-01   3.9595246e-02
 -1.5338919e-01   9.3754835e-02
 -7.2198224e-01   3.0111581e-01
  6.3475412e-01   4.4215474e-02
 -4.7458652e-01   7.4107446e-02
 -4.9809821e-02   5.6189299e-02
 -2.0937760e-01   4.3219939e-02
 -9.3078154e-01   5.4454371e-02
 -3.3160624e-01   8.7324850e-02
 -3.1227909e-02   1.1973891e-01
 -5.6459868e-01   1.4499228e-01
  5.8575165e-01   8.5939221e-02
  6.5939128e-01   4.0940937e-02
  1.6731720e-01   2.9224852e-01
 -9.3680537e-01   5.0002601e-02
  9.2339021e-01   8.2408458e-02
 -2.4133843e-01   8.9108065e-02
  3.0565792e-01   2.9701525e-01
  3.0346265e-01   5.3319439e-02
  3.8025790e-01   2.0609283e-01
  1.1350887e+00   6.6143610e-03
 -9.1841392e-02   3.5901327e-02
  5.4779136e-01   2.4152106e-02
 -4.4022387e-01   2.8701627e-03
  7.8957540e-01   1.0978504e-02
  2.6934547e+00   1.8086012e-02
  1.7198521e+00   1.5519697e-02
  2.2870781e+00   2.1008488e-02
 -4.6325322e-02   2.8501192e-02
 -5.9543496e-01   8.2264291e-03
  4.9028969e-01   7.8489520e-03
 -2.1180387e+00   3.4927942e-02
  1.8730459e-01   2.0504592e-02
  3.3646196e-01   2.0068433e-02
 -2.4467533e+00   2.9375553e-02
  3.6077093e-02   5.1221792e-03
 -2.6014000e-01   1.5090641e-02
  1.7235748e+00   8.8024139e-03
  8.2816494e-01   1.1367645e-02
  1.3623047e+00   1.9019909e-02
 -1.7145207e+00   1.6338700e-02
 -8.5259742e-01   2.7095718e-02
 -9.8178136e-01   5.8959499e-02
 -2.6573708e+00   2.1450661e-02
 -3.2750084e+00   9.9821342e-03
  1.4273182e-01   3.6465559e-02
 -2.4258246e-01   1.8586216e-02
 -1.5846713e+00   4.2682767e-02
 -1.3510060e+00   3.2391157e-02
 -3.4513727e-02   1.0202225e-01
 -2.6433495e-01   1.0955755e-01
 -3.4382617e-01   4.9265925e-02
  8.1524485e-01   8.2527474e-02
  3.5302994e-01   9.8648787e-02
 -1.0252085e-01   1.1809029e-01
 -3.2239354e-01   1.5655729e-01
  4.8594347e-01   3.2727070e-02
 -8.3013493e-01   8.5393198e-02
  7.5515991e-01   1.1162748e-02
 -5.1646417e-01   2.0738140e-01
 -1.9881175e+00   1.9619619e-02
 -1.0979772e+00   1.1358614e-01
 -1.1190826e+00   9.2098601e-03
 -4.1675913e-01   5.9051733e-02
  2.7661169e-02   3.1551402e-02
 -6.8274215e-02   3.2425571e-02
 -7.4116993e-01   6.7176963e-03
  4.0264809e-01   5.8945060e-02
  8.2149096e-02   5.2722692e-02
  1.8030019e-01   7.4889898e-02
 -2.3471603e-01   3.9413400e-02
  2.8375772e-01   1.0851162e-01
  1.4391966e+00   6.9419146e-02
  1.3373017e-01   9.6373208e-02
 -2.2943750e-01   9.2870817e-02
 -1.3502093e-01   8.7844752e-02
  3.4436083e-01   5.8076498e-03
 -7.1837813e-02   2.4199788e-02
  2.1107991e-01   3.0188741e-02
  2.5215931e+00   1.8264763e-02
 -1.3073276e-01   2.4252333e-02
  4.6329656e+00   1.4817166e-02
 -1.0358009e+00   2.2473568e-02
  9.3569154e-01   1.9518822e-02
 -2.4681861e+00   1.8509338e-02
  7.2842354e-01   9.4229775e-03
  4.4147456e-01   1.2828405e-02
 -5.5081445e-01   1.2011817e-02
  8.3277017e-01   3.0473083e-02
 -1.6792128e+00   2.0578353e-02
 -2.4262173e-01   4.4968575e-03
 -4.7551882e-01   1.4164080e-02
  2.8044721e-01   7.8022699e-03
  1.1606224e+00   9.5714051e-03
 -1.0918134e+00   1.2647916e-02
  3.5489365e-01   1.7532272e-02
  1.9354264e+00   4.5846156e-03
 -4.5440820e-01   5.7258718e-03
  1.7328213e+00   2.3176549e-02
  1.5756879e+00   1.2269110e-02
  4.5987600e-01   1.0360081e-02
  1.4834981e-01   2.6918452e-02
 -5.3696376e-01   2.8924139e-02
 -2.7032466e+00   1.4251630e-02
 -8.7628031e-01   2.5749899e-02
 -5.7008243e-01   7.2919652e-02
 -3.9947204e-02   3.5007834e-02
 -3.7300926e-01   1.4827879e-02
  2.9341885e-01   4.7028277e-02
  3.2987293e-02   7.3767856e-02
 -6.4120215e-01   8.2209043e-02
 -1.0111669e+00   4.9442347e-02
 -3.4274483e-01   6.0247391e-02
  1.3149890e-01   7.0068888e-02
  5.3334564e-01   1.5142701e-02
 -1.0449594e+00   4.0076088e-02
  3.5105001e-02   8.1601001e-02
 -9.4463205e-01   6.0275417e-02
  1.5858880e-01   9.4442824e-03
 -3.8301450e-01   3.4961328e-02
  1.8234757e-01   1.8490069e-02
  1.6044445e-01   1.4711006e-02
 -2.9179528e-01   1.2259788e-02
  6.0728681e-01   3.5273530e-02
  4.9682727e-01   1.2532606e-02
  6.3619345e-01   5.0128751e-02
  1.4754204e-01   2.9362686e-02
  7.8920431e-02   3.7879601e-02
  8.1343102e-01   2.8331822e-02
 -5.8607951e-02   3.5984013e-02
 -5.2334172e-01   2.8829062e-02
 -9.7923023e-01   3.1378951e-02
  6.8748730e-01   8.4099188e-02
  1.1068930e-01   6.7948058e-02
  1.7423725e+00   9.3370266e-02
 -5.9712273e-01   2.4454366e-02
 -6.1461222e-01   3.5027813e-02
  2.8646043e-02   1.0013260e-01
 -1.2618834e+00   6.9730408e-02
  1.9723861e-01   5.9946623e-02
 -6.9996995e-01   7.2578058e-02
  4.9961960e-01   6.8882950e-02
  9.8479360e-02   2.7138472e-02
  9.2527360e-02   1.0287637e-01
 -1.9586159e+00   9.8126838e-03
  7.6420504e-01   1.4391465e-01
  2.8202876e-01   2.3317307e-02
  4.4718795e-02   1.0937723e-01
 -1.3013370e-01   3.3321775e-02
 -3.2934645e-01   2.6454026e-02
 -7.3417377e-01   3.2370012e-02
  2.8847608e-01   4.5605250e-02
  8.0447626e-01   1.5797835e-02
 -6.3778496e-01   3.1141995e-02
  3.5682708e-02   4.6276849e-02
  3.8395426e-01   4.8118580e-02
 -2.9712152e+00   1.2558599e-02
  1.4958411e-01   6.7455739e-02
  1.5642972e-01   7.2612939e-03
 -3.1304649e-01   3.5997249e-02
 -2.2200148e+00   6.2786359e-03
 -1.7004603e+00   1.0872912e-02
  8.1806171e-01   6.6170190e-03
 -2.2247591e+00   2.8256027e-03
 -5.9006399e-01   3.6966067e-03
  3.4638727e-01   1.1791766e-02
 -2.6659853e+00   9.7751971e-03
 -7.6062560e-01   4.5972597e-03
 -2.3668454e+00   6.0773366e-03
  1.0014819e+00   1.7391052e-03
  1.2195043e-01   3.6452950e-03
  4.1599795e-01   9.2391213e-03
 -4.0592458e-02   9.4279833e-03
  7.8200972e-01   1.0204626e-02
  3.7617922e-01   3.2570742e-03
 -4.0077123e-01   1.5426836e-03
  1.2211978e-01   4.1200249e-03
 -1.6349514e+00   2.4265291e-03
 -1.4605210e+00   7.5720605e-03
  4.0522581e-01   1.1297277e-02
 -3.9404225e-01   9.3532813e-04
  2.3132332e-02   5.3363317e-03
 -1.2795184e+00   5.0757611e-03
 -1.5968410e+00   9.7159492e-03
 -7.4102229e-01   3.0223387e-03
  3.0369051e+00   7.3282034e-03
 -1.2238723e+00   4.3958193e-03
 -9.7151244e-01   3.6072235e-03
 -5.6206620e-01   1.9670641e-01
  3.7888706e-01   1.5385844e-01
 -6.0246390e-01   8.3309367e-02
  1.2556142e-01   9.3230531e-02
 -1.4737557e-01   1.8982811e-01
  5.2703995e-02   1.2015255e-01
 -5.2275950e-01   2.3960178e-01
 -4.8175102e-01   7.3530036e-03
  2.6890561e-01   1.8890828e-02
  7.0352025e-02   7.6709636e-02
  1.2769822e-02   6.8516873e-02
  3.8136519e-02   1.4924042e-01
 -7.4608189e-01   1.8834566e-01