ITEM: TIMESTEP
1000 
ITEM: NUMBER OF ATOMS
155
ITEM: BOX BOUNDS pp pp pp
0.0000000000         23.2562000000
0.0000000000          2.5187994400
0.0000000000         25.2300594900
ITEM: ATOMS id type x y z
1   1         4.5953141996         1.2584470801         5.1694397711
2   1         6.7707283201         0.0004570901         5.2035179898
3   1         7.4365639379         1.2602068899         7.2552273105
4   1         5.3082223685         2.5183066001         5.6896337785
5   1         7.4809506980         1.2602906599         5.7247142991
6   1         8.1464634779         0.0012433200         7.7734167191
7   1         2.4225906702         2.5164301900         5.1443822600
8   1         3.1004607994         1.2574500000         7.2041099788
9   1         0.9641025899         2.5154932100         5.6465348599
10   1         3.1358206979         1.2575146900         5.6655785694
11   1         5.2688503289         2.5182197801         7.2241559902
12   1         5.9437089895         1.2591953300         9.2758653110
13   1         3.8133684892         2.5173102799         7.7233016893
14   1         5.9790717393         1.2592806201         7.7433477007
15   1         8.1040799301         0.0011626101         9.2999205201
16   1         8.7729165489         1.2609231101        11.3375976286
17   1         6.6536080295         0.0002577001         9.7930524201
18   1         8.8092871085         1.2609999999         9.8161053298
19   1         9.4757948281         0.0019396899        11.8487709386
20   1         0.9327543695         2.5154262300         7.1880731702
21   1         1.6206510791         1.2564445101         9.2498055004
22   1         1.6459839299         1.2565115001         7.7082671801
23   1         3.7850260397         2.5172463601         9.2608307993
24   1         4.4769296879         1.2582196199        11.3155470209
25   1         2.3355634092         2.5163055701         9.7679949014
26   1         4.4952469896         1.2582827801         9.7790202103
27   1         6.6292729883         0.0001731700        11.3245677309
28   1         5.1888333983         2.5180570100        11.8317318305
29   1         7.3354812995         1.2600128499        11.8377456297
30   1         2.3202557086         2.5162393501        11.3085309198
31   1         3.0334843201         1.2573009500        11.8267203207
32   1         9.4718257297         0.0018910501        13.3662540397
33   1         8.8009158091         1.2607997400        15.3979173415
34   1         8.1303310892         0.0009532601        17.4375990615
35   1         7.4604313690         1.2598749099        19.4852991694
36   1         3.0312113382         1.2572576299        13.3702632400
37   1         2.3147857295         2.5161890200        13.8854457502
38   1         7.3332035594         1.2599519801        13.3712655394
39   1         5.1848747884         2.5180167399        13.3712655394
40   1         4.4869052488         1.2581107100        15.4229748602
41   1         4.4731401087         1.2581494499        13.8854457502
42   1         2.3255450988         2.5161472200        15.4269840604
43   1         1.6315886793         1.2562366099        17.4847071803
44   1         1.6108036901         1.2562784001        15.9431688701
45   1         6.6237944485         0.0000862200        13.8834411513
46   1         3.7734873295         2.5170420900        15.9381573704
47   1         0.9151645101         2.5151657000        18.0028965914
48   1         8.7691117183         1.2608270201        13.8754227407
49   1         6.6435721001         0.0000520701        15.4149564495
50   1         5.9636467600         1.2589737200        17.4626565701
51   1         5.9338425281         1.2590094000        15.9291366578
52   1         3.7972780896         2.5170033599        17.4756864804
53   1         3.1143493601         1.2571187000        19.5324073009
54   1         3.0845422886         1.2571337700        17.9928735794
55   1         0.9419648596         2.5151239101        19.5444349117
56   1         8.0925097288         0.0009583999        15.9110952503
57   1         5.2512318783         2.5179043400        17.9788413797
58   1         2.3989277494         2.5160477899        20.0505967094
59   1         7.4206029683         1.2598831199        17.9547861605
60   1         5.2860493679         2.5178930800        19.5133635914
61   1         4.5733145181         1.2580219800        20.0325553019
62   1         6.7460127889         0.0000038001        20.0044908799
63   1         8.9494777496         1.2612314199         5.2506261212
64   1         9.2226165580         0.0020438599         4.4106982206
65   1        10.2677894983         1.2619392300         9.3440217508
66   1         9.6109807582         0.0021833200         7.3003308381
67   1        11.3489677990         1.2627199100         6.0073630704
68   1        10.5389274898         0.0027196100         8.5131145602
69   1         9.8814351896         1.2617921399         6.4644121402
70   1        10.6921523798         0.0029746900         3.9496399480
71   1        12.4381603793         1.2635357101         2.6576744797
72   1        11.6231105986         0.0035300601         5.1704420680
73   1        10.9646100281         1.2625865700         3.1097120498
74   1        12.7123022184         0.0043473801         1.8187488784
75   1        10.9192616498         0.0028743401        11.3827011612
76   1        12.6472378779         1.2633872500        10.1208047088
77   1        11.1877162293         1.2624495700        10.5578077698
78   1        12.0034557401         0.0036672201         8.0630815914
79   1        13.7434569678         1.2642144799         6.7891575281
80   1        12.9203814585         0.0041920399         9.2908998202
81   1        12.2749141695         1.2632737499         7.2301697994
82   1        13.0946582189         0.0044753799         4.7234160102
83   1        14.8416740096         1.2650531800         3.4424758484
84   1        14.0186028096         0.0050238601         5.9532388403
85   1        13.3671168184         1.2640857199         3.8854927109
86   1        14.1888626289         0.0053178901         1.3717228206
87   1        15.1168184397         0.0058396599         2.6035502496
88   1        14.3849182880         0.0051510899         8.8589082615
89   1        16.1279314797         1.2657166599         7.5940049107
90   1        14.6583808786         1.2647591499         8.0239918706
91   1        15.4901551788         0.0059867301         5.5162357794
92   1        16.4040789195         0.0065275700         6.7560816115
93   1        15.7646184488         1.2655726501         4.6773101807
94   1        19.6826002699         1.2678411501        15.1483445020
95   1        17.9044902794         0.0072366599        16.3982133385
96   1        16.1585878095         1.2655124201        15.1303030895
97   1        18.8011865201         0.0078644001        15.1453375886
98   1        17.0213923481         1.2660349201        16.3942041383
99   1        15.2801817491         0.0055356701        15.1272961811
100   1        21.4563747792         0.0096523100        13.8904572499
101   1        19.6954343783         1.2679021199        12.6235493003
102   1        22.3410354899         0.0103128800        12.6275585006
103   1        20.5722752290         1.2684742300        13.8884526510
104   1        17.9313635999         0.0072922800        13.8804342404
105   1        16.1774429992         1.2655894099        12.6175354885
106   1        18.8150241498         0.0079238400        12.6225470009
107   1        17.0502717298         1.2661142000        13.8784296390
108   1        14.4173791082         0.0050101100        13.8674043402
109   1        12.6764956287         1.2633263099        12.6125239914
110   1        15.3010430187         0.0056111300        12.6165331916
111   1        13.5423026194         1.2638320300        13.8653997287
112   1        21.4601839099         0.0097415201        11.3616528504
113   1        19.6902223685         1.2679630900        10.0987541011
114   1        20.5760848597         1.2685374901        11.3606505510
115   1        17.9351770190         0.0073746201        11.3606505510
116   1        16.1662218385         1.2656404401        10.1057701996
117   1        18.8088100583         0.0079840401        10.0987541011
118   1        17.0540861187         1.2661950099        11.3606505510
119   1        14.4211996996         0.0050809799        11.3626551498
120   1        15.2878171898         0.0056865900        10.1057701996
121   1        13.5461241480         1.2639265600        11.3626551498
122   1        17.9159324879         0.0074302400         8.8428714503
123   1        17.0328369381         1.2662498701         8.8438737497
124   1        13.7259436190         1.2638707900        18.4398996498
125   1        15.4678406200         0.0055873901        19.7178329083
126   1        14.8133121388         1.2645662701        21.7895882405
127   1        13.9978754492         0.0046390301        19.2768206497
128   1        15.7400947882         1.2651787300        20.5567585096
129   1        15.0862479485         0.0053574000        22.6295161412
130   1        11.9897396194         0.0033814701        17.1599617899
131   1        11.3291876800         1.2623229600        19.2146780090
132   1        10.5267861580         0.0024682300        16.7059196184
133   1        12.2579816489         1.2629506701        17.9948781909
134   1        13.0700873692         0.0040311599        20.5036365714
135   1        12.4075340989         1.2630169200        22.5663711986
136   1        11.6001169494         0.0030912001        20.0515990114
137   1        13.3403364180         1.2636224900        21.3425621701
138   1        14.1544505600         0.0047731899        23.8583366694
139   1        12.6794678199         0.0038072800        23.4073014012
140   1         9.5949797298         0.0018481600        17.9156964396
141   1         8.9274069878         1.2607942400        19.9643988495
142   1         9.8632227198         1.2614158401        18.7526174395
143   1        10.6663096787         0.0024894401        21.2703965300
144   1         9.1973351290         0.0015601799        20.8043267502
145   1        10.9355566598         1.2620548301        22.1103244307
146   1        11.8074349699         0.0033732100        12.6115216894
147   1        16.1116603887         1.2654361999        17.6420683784
148   1        16.3866008689         0.0062029000        18.4809939695
149   1        12.6395842997         1.2632401801        15.1042432689
150   1        14.3734555791         0.0049148099        16.3711512184
151   1        12.9095086385         0.0039870499        15.9361527614
152   1        14.6447057795         1.2644832499        17.2070699214
153   1        10.9154172185         0.0027913000        13.8373353218
154   1        11.1816498495         1.2623421901        14.6632310102
155   1        10.2578643987         1.2616961699        15.8740101308
ITEM: TIMESTEP
2000 
ITEM: NUMBER OF ATOMS
155
ITEM: BOX BOUNDS pp pp pp
0.0000000000         23.2562000000
0.0000000000          2.5187994400
0.0000000000         25.2300594900
ITEM: ATOMS id type x y z
1   1         4.5953142226         1.1911291801         5.1694397864
2   1         6.7707283368        -0.0821009099         5.2035180071
3   1         7.4365639496         1.1905482899         7.2552273250
4   1         5.3082223880         2.4472849001         5.6896337952
5   1         7.4809507104         1.1726028599         5.7247143146
6   1         8.1464634885        -0.0682290800         7.7734167295
7   1         2.4225906969         2.4595552900         5.1443822712
8   1         3.1004608194         1.2147333000         7.2041099914
9   1         0.9641026147         2.4692940100         5.6465348664
10   1         3.1358207222         1.1985938900         5.6655785827
11   1         5.2688503457         2.4642975801         7.2241560057
12   1         5.9437090004         1.2276375300         9.2758653241
13   1         3.8133685071         2.4761520799         7.7233017024
14   1         5.9790717539         1.2059447201         7.7433477150
15   1         8.1040799380        -0.0449356899         9.2999205303
16   1         8.7729165519         1.2471360101        11.3375976350
17   1         6.6536080397        -0.0283830999         9.7930524309
18   1         8.8092871163         1.2172913999         9.8161053361
19   1         9.4757948315        -0.0080316901        11.8487709409
20   1         0.9327543902         2.4823694300         7.1880731766
21   1         1.6206510921         1.2413568101         9.2498055083
22   1         1.6459839494         1.2272551001         7.7082671875
23   1         3.7850260528         2.4956116601         9.2608308115
24   1         4.4769296946         1.2668000699        11.3155470311
25   1         2.3355634221         2.5081824401         9.7679949094
26   1         4.4952470018         1.2405997801         9.7790202218
27   1         6.6292729931        -0.0002248120        11.3245677407
28   1         5.1888334043         2.5319485100        11.8317318396
29   1         7.3354813043         1.2640314699        11.8377456369
30   1         2.3202557151         2.5280084501        11.3085309278
31   1         3.0334843272         1.2784344500        11.8267203280
32   1         9.4718257260         0.0271037501        13.3662540423
33   1         8.8009158023         1.3259846400        15.3979173420
34   1         8.1303310814         0.0974407601        17.4375990601
35   1         7.4604313631         1.3782549099        19.4852991677
36   1         3.0312113389         1.3073326299        13.3702632461
37   1         2.3147857304         2.5761749200        13.8854457553
38   1         7.3332035571         1.2951860801        13.3712655457
39   1         5.1848747878         2.5621861399        13.3712655473
40   1         4.4869052446         1.3367973100        15.4229748656
41   1         4.4731401091         1.3108869499        13.8854457565
42   1         2.3255450951         2.5965764200        15.4269840646
43   1         1.6315886732         1.3585326099        17.4847071839
44   1         1.6108036868         1.3441857001        15.9431688739
45   1         6.6237944485         0.0445728200        13.8834411560
46   1         3.7734873260         2.6025316900        15.9381573750
47   1         0.9151645041         2.6215167000        18.0028965949
48   1         8.7691117173         1.2956997201        13.8754227417
49   1         6.6435720949         0.0725326701        15.4149564535
50   1         5.9636467534         1.3600377200        17.4626565728
51   1         5.9338425244         1.3388769000        15.9291366608
52   1         3.7972780834         2.6211853599        17.4756864847
53   1         3.1143493539         1.3780407000        19.5324073051
54   1         3.0845422826         1.3652647700        17.9928735834
55   1         0.9419648534         2.6320709101        19.5444349151
56   1         8.0925097245         0.0741246999        15.9110952496
57   1         5.2512318726         2.6236603400        17.9788413821
58   1         2.3989277430         2.6373537899        20.0505967132
59   1         7.4206029624         1.3617251199        17.9547861590
60   1         5.2860493620         2.6378100800        19.5133635940
61   1         4.5733145124         1.3787199800        20.0325553040
62   1         6.7460127838         0.1192008001        20.0044908784
63   1         8.9494777555         1.1559214199         5.2506261344
64   1         9.2226165618        -0.1098741401         4.4106982387
65   1        10.2677895028         1.1992281300         9.3440217534
66   1         9.6109807652        -0.0857230800         7.3003308453
67   1        11.3489678030         1.1507109100         6.0073630771
68   1        10.5389274975        -0.0707035900         8.5131145671
69   1         9.8814351978         1.1652483399         6.4644121516
70   1        10.6921523780        -0.1219673100         3.9496399604
71   1        12.4381603691         1.1245137101         2.6576744869
72   1        11.6231106014        -0.1156149399         5.1704420768
73   1        10.9646100224         1.1325535700         3.1097120637
74   1        12.7123022040        -0.1374106199         1.8187488850
75   1        10.9192616502        -0.0285130599        11.3827011597
76   1        12.6472378797         1.2011223500        10.1208047071
77   1        11.1877162347         1.2190430700        10.5578077727
78   1        12.0034557444        -0.0865334799         8.0630815937
79   1        13.7434569713         1.1525344799         6.7891575281
80   1        12.9203814639        -0.0688046601         9.2908998216
81   1        12.2749141756         1.1638812499         7.2301698043
82   1        13.0946582182        -0.1251726201         4.7234160130
83   1        14.8416740030         1.1262991800         3.4424758433
84   1        14.0186028130        -0.1138241399         5.9532388405
85   1        13.3671168148         1.1295237199         3.8854927135
86   1        14.1888626122        -0.1402131099         1.3717228192
87   1        15.1168184294        -0.1357033401         2.6035502431
88   1        14.3849182907        -0.0819800101         8.8589082592
89   1        16.1279314832         1.1614096599         7.5940049066
90   1        14.6583808840         1.1689413499         8.0239918694
91   1        15.4901551802        -0.1183832699         5.5162357737
92   1        16.4040789248        -0.1045244300         6.7560816048
93   1        15.7646184482         1.1360146501         4.6773101731
94   1        19.6826002533         1.2551087501        15.1483445036
95   1        17.9044902619         0.0211815599        16.3982133294
96   1        16.1585878000         1.2759594201        15.1303030782
97   1        18.8011865060         0.0020427201        15.1453375865
98   1        17.0213923361         1.2892762201        16.3942041285
99   1        15.2801817433         0.0211625701        15.1272961725
100   1        21.4563747667        -0.0209364900        13.8904572622
101   1        19.6954343732         1.2274605199        12.6235493034
102   1        22.3410354845        -0.0334269200        12.6275585176
103   1        20.5722752172         1.2416571300        13.8884526590
104   1        17.9313635909        -0.0122303200        13.8804342352
105   1        16.1774429954         1.2357150099        12.6175354811
106   1        18.8150241454        -0.0310416600        12.6225470009
107   1        17.0502717233         1.2504328000        13.8784296332
108   1        14.4173791032         0.0059907890        13.8674043307
109   1        12.6764956271         1.2502761099        12.6125239851
110   1        15.3010430167        -0.0215011700        12.6165331868
111   1        13.5423026175         1.2690535700        13.8653997238
112   1        21.4601839114        -0.0448137799        11.3616528629
113   1        19.6902223745         1.2026768900        10.0987541043
114   1        20.5760848610         1.2118712901        11.3606505594
115   1        17.9351770188        -0.0446327799        11.3606505478
116   1        16.1662218407         1.1973747401        10.1057701945
117   1        18.8088100631        -0.0611259599        10.0987541018
118   1        17.0540861187         1.2146437099        11.3606505477
119   1        14.4211996993        -0.0399122201        11.3626551439
120   1        15.2878171921        -0.0625526100        10.1057701974
121   1        13.5461241495         1.2211365600        11.3626551483
122   1        17.9159324953        -0.0735317600         8.8428714472
123   1        17.0328369425         1.1800042701         8.8438737474
124   1        13.7259436095         1.3440218900        18.4398996322
125   1        15.4678406101         0.0878311901        19.7178328845
126   1        14.8133121344         1.3685722701        21.7895882134
127   1        13.9978754393         0.0916445301        19.2768206295
128   1        15.7400947808         1.3548731300        20.5567584825
129   1        15.0862479472         0.1134034000        22.6295161122
130   1        11.9897396120         0.0768207701        17.1599617775
131   1        11.3291876727         1.3643039600        19.2146779950
132   1        10.5267861498         0.0760606300        16.7059196114
133   1        12.2579816393         1.3438754701        17.9948781772
134   1        13.0700873624         0.1095961599        20.5036365512
135   1        12.4075340990         1.3851919200        22.5663711790
136   1        11.6001169418         0.1098672001        20.0515989963
137   1        13.3403364127         1.3731894900        21.3425621480
138   1        14.1544505634         0.1232731899        23.8583366442
139   1        12.6794678217         0.1264412800        23.4073013809
140   1         9.5949797230         0.0986241600        17.9156964320
141   1         8.9274069831         1.3794502400        19.9643988417
142   1         9.8632227118         1.3636788401        18.7526174311
143   1        10.6663096755         0.1232514401        21.2703965169
144   1         9.1973351235         0.1212181799        20.8043267434
145   1        10.9355566571         1.3837358301        22.1103244177
146   1        11.8074349710        -0.0060648500        12.6115216894
147   1        16.1116603771         1.3174611999        17.6420683618
148   1        16.3866008566         0.0681012000        18.4809939479
149   1        12.6395842957         1.2995008801        15.1042432599
150   1        14.3734555718         0.0506508099        16.3711512056
151   1        12.9095086305         0.0495993499        15.9361527512
152   1        14.6447057684         1.3188418499        17.2070699062
153   1        10.9154172174         0.0283350000        13.8373353181
154   1        11.1816498438         1.2976734901        14.6632310058
155   1        10.2578643933         1.3271770699        15.8740101247
