lammps-data (written by ASE) 

155 	 atoms 
1  atom types
0.0                 23.2562  xlo xhi
0.0              2.51879944  ylo yhi
0.0      25.230059489999999  zlo zhi


Atoms 

     1   1      4.5953141995540996      1.2584470800780787      5.1694397711107909
     2   1      6.7707283201313802  0.00045709006069605257      5.2035179897568797
     3   1        7.43656393793544      1.2602068899347034      7.2552273105357612
     4   1      5.3082223685169794      2.5183066001150922      5.6896337785191218
     5   1      7.4809506979992397      1.2602906599145991      5.7247142991235398
     6   1      8.1464634778861402   0.0012433199562550225      7.7734167190734453
     7   1      2.4225906701515201      2.5164301899947912      5.1443822599976432
     8   1      3.1004607993530593      1.2574499999701179      7.2041099787821192
     9   1     0.96410258988383957      2.5154932099527483      5.6465348599091083
    10   1      3.1358206979455399      1.2575146900442553      5.6655785693643033
    11   1      5.2688503289054589      2.5182197801209552      7.2241559901956425
    12   1      5.9437089895127979      1.2591953300044016      9.2758653109745257
    13   1      3.8133684892382194      2.5173102799289224      7.7233016892781334
    14   1      5.9790717393153985      1.2592806200797593      7.7433477006916558
    15   1      8.1040799301448807   0.0011626100657991002      9.2999205201293424
    16   1      8.7729165489275189      1.2609231100517073      11.337597628629648
    17   1      6.6536080294551994  0.00025770013386604632      9.7930524200768847
    18   1      8.8092871084827387      1.2609999999309329      9.8161053297963807
    19   1      9.4757948281411792   0.0019396899186323814      11.848770938597061
    20   1     0.93275436951201973      2.5154262300380394      7.1880731701558993
    21   1      1.6206510791055195      1.2564445100945865      9.2498055004260529
    22   1      1.6459839298564196      1.2565115000844926      7.7082671800872369
    23   1      3.7850260396915996      2.5172463601036537      9.2608307992606242
    24   1      4.4769296878921994      1.2582196198946496      11.315547020868484
    25   1      2.3355634092438997      2.5163055701255774      9.7679949013947205
    26   1      4.4952469896287797      1.2582827800500074      9.7790202103213151
    27   1      6.6292729882909187   0.0001731699802994778       11.32456773092443
    28   1      5.1888333983208792      2.5180570100116633      11.831731830535521
    29   1      7.3354812995263785       1.260012849937884      11.837745629670467
    30   1      2.3202557086286597      2.5162393501326603      11.308530919775206
    31   1      3.0334843201200998      1.2573009500132557      11.826720320743872
    32   1      9.4718257296970982    0.001891050138286311      13.366254039689034
    33   1      8.8009158090563595      1.2607997400107762      15.397917341485376
    34   1      8.1303310891627003  0.00095326005034341763      17.437599061471357
    35   1       7.460431369011939       1.259874909901592      19.485299169370908
    36   1      3.0312113382031796       1.257257629937327      13.370263239953335
    37   1      2.3147857294564198        2.51618901998601      13.885445750185047
    38   1      7.3332035593909399      1.2599519801268571      13.371265539388659
    39   1      5.1848747884229995      2.5180167399499762      13.371265539388659
    40   1      4.4869052488325991      1.2581107100294233      15.422974860167541
    41   1      4.4731401087071587      1.2581494499204502      13.885445750185047
    42   1      2.3255450987566597      2.5161472200055433       15.42698406043184
    43   1      1.6315886792713197      1.2562366099000886      17.484707180345669
    44   1      1.6108036900601796      1.2562784000572373      15.943168870098878
    45   1      6.6237944485114602  8.6220016111196468e-05        13.8834411513144
    46   1      3.7734873295475397      2.5170420900029087      15.938157370399253
    47   1     0.91516451008333966      2.5151657000330028      18.002896591406362
    48   1      8.7691117183265188      1.2608270201199911      13.875422740693777
    49   1      6.6435721000708394  5.2070133303614493e-05      15.414956449546915
    50   1      5.9636467600091789      1.2589737199845519      17.462656570061501
    51   1      5.9338425280578386      1.2590094000380192      15.929136657820301
    52   1      3.7972780895838807      2.5170033599351993      17.475686480381746
    53   1      3.1143493601318997      1.2571187000128552      19.532407300860253
    54   1      3.0845422885985401      1.2571337699899046      17.992873579392086
    55   1     0.94196485961291954      2.5151239101277341      19.544434911745178
    56   1      8.0925097287803993  0.00095839991248089843      15.911095250323436
    57   1      5.2512318783044991       2.517904340036246      17.978841379728536
    58   1      2.3989277494465799      2.5160477898938889      20.050596709397936
    59   1      7.4206029683365795      1.2598831199283664      17.954786160481692
    60   1      5.2860493678931393      2.5178930799952295      19.513363591405056
    61   1       4.573314518086379      1.2580219800296704      20.032555301901073
    62   1      6.7460127889301393  3.8001127153791662e-06      20.004490879866925
    63   1      8.9494777495622397      1.2612314199189618      5.2506261212462224
    64   1      9.2226165580097987   0.0020438599070724608      4.4106982205648038
    65   1      10.267789498290279      1.2619392300165153       9.344021750789711
    66   1      9.6109807582368791   0.0021833200388265504      7.3003308381084464
    67   1      11.348967799040519      1.2627199099893884       6.007363070398557
    68   1        10.5389274898039   0.0027196099697142039      8.5131145601642384
    69   1      9.8814351895663783      1.2617921399374976      6.4644121402143329
    70   1       10.69215237980648   0.0029746900484027266      3.9496399479617215
    71   1      12.438160379337221      1.2635357100866131      2.6576744796871563
    72   1      11.623110598572659   0.0035300601369283261      5.1704420680231076
    73   1      10.964610028109758      1.2625865700365138      3.1097120498033082
    74   1      12.712302218388299   0.0043473800777351027      1.8187488784410608
    75   1      10.919261649757779   0.0028743400711933489      11.382701161248345
    76   1       12.64723787787306      1.2633872500325798      10.120804708832562
    77   1      11.187716229285639      1.2624495700161726      10.557807769757819
    78   1      12.003455740104179   0.0036672201010338047      8.0630815914417404
    79   1       13.74345696783114      1.2642144799379036      6.7891575281410326
    80   1      12.920381458492859   0.0041920399230315902      9.2908998201654196
    81   1      12.274914169495119      1.2632737499072542      7.2301697994226135
    82   1       13.09465821888092   0.0044753799239171353      4.7234160102216096
    83   1      14.841674009559318      1.2650531799521167      3.4424758483506324
    84   1      14.018602809594899   0.0050238600884545577      5.9532388403389431
    85   1       13.36711681836278      1.2640857199180504      3.8854927109338431
    86   1      14.188862628884239   0.0053178901260434053      1.3717228206395617
    87   1      15.116818439671738   0.0058396599337992945      2.6035502496275424
    88   1       14.38491828800532   0.0051510899376477817      8.8589082614627923
    89   1      16.127931479683539      1.2657166599351664       7.594004910741039
    90   1       14.65838087857176      1.2647591499145279      8.0239918705730204
    91   1      15.490155178819201   0.0059867301143014546      5.5162357794136856
    92   1      16.404078919468898   0.0065275700044975246      6.7560816114532729
    93   1       15.76461844878734      1.2655726500959841      4.6773101806905952
    94   1       19.68260026992688      1.2678411501386326      15.148344502036155
    95   1        17.9044902793724   0.0072366599040468845      16.398213338521003
    96   1        16.1585878095004      1.2655124200600145      15.130303089493278
    97   1      18.801186520096859    0.007864400138082565      15.145337588592149
    98   1      17.021392348097059      1.2660349200677283      16.394204138256704
    99   1      15.280181749132078   0.0055356700594647989      15.127296181095282
   100   1      21.456374779211242   0.0096523099731398929      13.890457249884673
   101   1      19.695434378318378      1.2679021199459974      12.623549300292273
   102   1       22.34103548991666    0.010312879987196589      12.627558500556573
   103   1       20.57227522898372      1.2684742299756013      13.888452651014026
   104   1      17.931363599880719   0.0072922800332809639        13.8804342403934
   105   1      16.177442999235538      1.2655894099355778      12.617535488542293
   106   1      18.815024149797701   0.0079238400266674058      12.622547000856949
   107   1      17.050271729812419      1.2661142000357422      13.878429638999748
   108   1      14.417379108241338   0.0050101099623115972      13.867404340165177
   109   1      12.676495628659939      1.2633263099470486      12.612523991365679
   110   1      15.301043018679218   0.0056111300162479255      12.616533191629978
   111   1       13.54230261942206       1.263832029964773      13.865399728679503
   112   1      21.460183909883622   0.0097415200560659818      11.361652850399496
   113   1      19.690222368544639      1.2679630900052419      10.098754101071396
   114   1      20.576084859664398      1.2685374901272966      11.360650550964174
   115   1      17.935177018996381   0.0073746200907344522      11.360650550964174
   116   1      16.166221838548761      1.2656404400565924      10.105770199641668
   117   1      18.808810058273398   0.0079840400889232381      10.098754101071396
   118   1       17.05408611871162      1.2661950099225359      11.360650550964174
   119   1       14.42119969956908   0.0050809799108752123       11.36265514983482
   120   1      15.287817189831779   0.0056865899730310539      10.105770199641668
   121   1      13.546124147974659      1.2639265600039962       11.36265514983482
   122   1       17.91593248791456   0.0074302399680885901      8.8428714503135684
   123   1      17.032836938074102      1.2662498701299789      8.8438737497488908
   124   1      13.725943618974839      1.2638707900061954      18.439899649808613
   125   1      15.467840620031579    0.005587390079645981      19.717832908327605
   126   1      14.813312138760081      1.2645662700767304      21.789588240520015
   127   1       13.99787544924736    0.004639030101733093      19.276820649661055
   128   1      15.740094788212961      1.2651787300139636      20.556758509573704
   129   1      15.086247948489079   0.0053574000140592451      22.629516141201432
   130   1      11.989739619397099   0.0033814701128440697      17.159961789895963
   131   1      11.329187679998318      1.2623229600435215      19.214678008980815
   132   1      10.526786158028578   0.0024682300074030453      16.705919618386158
   133   1      12.257981648885059      1.2629506700519639       17.99487819087776
   134   1      13.070087369151121   0.0040311599208397424      20.503636571380394
   135   1      12.407534098856379      1.2630169200185948      22.566371198562866
   136   1      11.600116949442558   0.0030912001390592521      20.051599011356267
   137   1      13.340336418001559      1.2636224900318394      21.342562170103484
   138   1       14.15445055997896   0.0047731899238255913      23.858336669360437
   139   1       12.67946781985796   0.0038072799589345587      23.407301401202613
   140   1      9.5949797298335184   0.0018481600214220531      17.915696439612972
   141   1      8.9274069878448401      1.2607942399603191      19.964398849470854
   142   1       9.863222719802538        1.26141584011696      18.752617439465418
   143   1      10.666309678731739   0.0024894400618474528      21.270396530024001
   144   1      9.1973351290427185   0.0015601798882081406      20.804326750152274
   145   1      10.935556659785339      1.2620548300649344      22.110324430705418
   146   1       11.80743496993434   0.0033732099619603211      12.611521689407349
   147   1      16.111660388657679      1.2654361999295605      17.642068378393908
   148   1      16.386600868872961   0.0062029000311207968      18.480993969547978
   149   1       12.63958429966298      1.2632401801039577      15.104243268852782
   150   1      14.373455579122858   0.0049148099260994758      16.371151218445181
   151   1      12.909508638472159   0.0039870499494066292      15.936152761436585
   152   1      14.644705779475858      1.2644832499434282      17.207069921385308
   153   1      10.915417218499419   0.0027913000393754855      13.837335321783387
   154   1      11.181649849515638       1.262342190069726       14.66323101018623
   155   1      10.257864398652639      1.2616961699006344      15.874010130848371
