  1.4298791e-01   9.9574303e-05
 -6.1136079e-01   6.0296898e-05
  3.0389805e+00   7.2771037e-04
  4.1142207e-01   3.0404070e-04
  1.8521470e+00   4.7331047e-04
  3.9072296e-01   3.2635275e-04
 -1.6577637e+00   3.8128294e-04
 -6.1949480e-01   9.0501722e-05
 -3.2875242e+00   6.2449899e-04
  1.8060081e+00   1.5023620e-04
  2.1586947e+00   4.6492496e-04
  2.4216330e+00   5.0884526e-04
 -3.6696777e+00   5.3270225e-04
 -2.1643503e+00   3.0057458e-04
  2.0158112e+00   7.9188088e-04
  5.3492486e-01   2.7720671e-04
 -1.1569616e+00   5.9165561e-04
  3.2767949e+00   3.4168651e-04
 -4.3598008e-01   6.2713306e-04
  9.5357442e-01   2.8617919e-04
  9.1306373e-02   4.8881577e-04
  1.0159672e+00   7.8425568e-04
 -3.1059597e+00   2.4743364e-04
 -1.4788642e+00   4.7397928e-04
 -2.7246530e+00   2.2782765e-04
 -2.6092646e+00   2.8393904e-04
  2.0149028e+00   7.5236530e-05
  1.3520417e+00   1.3490976e-04
 -3.1507714e+00   3.2742252e-04
  2.7300236e-01   2.3135904e-04
  8.5933226e-01   3.4743841e-04
 -7.3240662e-01   3.7935140e-04
  1.6575196e-01   3.4065114e-04
 -6.9974399e-01   1.5387381e-04
  6.5594357e-01   5.5240514e-04
  2.0457127e+00   3.2628316e-04
  8.2491392e-01   8.7561537e-05
  1.5465634e-02   1.8217019e-04
 -2.5899451e+00   7.0316797e-05
  1.2054029e+00   4.5789071e-04
 -2.2890697e+00   4.4264738e-04
  2.7654364e+00   5.4393132e-04
 -2.3097577e+00   3.5419140e-04
  4.2062455e-01   1.0218078e-03
  2.3291304e+00   3.0515957e-04
  2.6007016e+00   1.3233779e-04
 -4.1176790e-01   4.9027748e-04
  1.4711854e+00   1.0837599e-03
 -1.1310282e+00   4.7555845e-04
  7.5984079e-01   6.0837547e-04
  8.7346621e-02   8.1082393e-04
 -2.8516934e+00   2.5535424e-04
  1.6599473e+00   1.0121124e-04
  3.5813752e-01   4.7873394e-04
 -9.4917677e-02   1.8306804e-04
  3.9563620e-01   1.7894190e-04
 -6.4980042e-01   4.0380066e-04
  6.1543524e-01   7.9709006e-04
 -3.1901374e+00   2.7983767e-04
 -1.5057617e+00   3.9037858e-04
 -1.2139978e+00   2.1435140e-04
 -1.4331642e-01   2.6297604e-04
 -3.5439460e+00   8.2583725e-04
  4.1576806e-02   4.7145873e-05
 -7.4858063e-01   2.2399916e-04
 -3.5695591e+00   7.2330021e-04
  1.3109332e+00   2.8773042e-04
 -1.4737051e+00   3.0005613e-04
  3.5436623e-02   1.1795647e-04
 -2.0811693e-03   8.4664280e-05
  2.4079442e-02   2.4596119e-04
  1.6146481e+00   3.4958619e-04
 -1.9123548e+00   3.9754913e-04
 -1.5350738e+00   4.4326959e-04
 -2.6823087e+00   6.6814544e-05
 -5.3465953e+00   1.4745290e-04
 -4.7049284e-01   7.4831252e-05
 -1.5885555e+00   2.0507624e-04
 -7.8504699e-01   4.5270717e-04
 -8.5209262e-01   1.0330596e-04
  1.3092209e-03   6.4640655e-04
  9.8285282e-01   1.3937081e-04
  1.6762680e+00   4.0126743e-05
  1.5561353e+00   6.1480649e-04
 -1.2096625e-01   1.8702849e-04
 -8.7280309e-01   4.4364561e-04
  1.7579364e+00   4.9276842e-04
  1.1074998e+00   9.1921753e-04
 -1.2753721e+00   8.5233786e-04
  1.5664017e+00   7.4071420e-04
 -1.2108141e+00   9.3329878e-04
 -3.4291536e-01   1.0281970e-04
  2.7471760e-01   5.5341935e-04
 -2.1582046e+00   5.2137865e-04
 -4.0959511e-03   1.0874227e-03
  6.8872619e-01   1.9407544e-03
 -2.4442914e+00   8.0267535e-05
 -2.3079016e+00   2.7258237e-04
 -1.6230741e+00   1.0219363e-04
 -1.2730826e-01   3.1103328e-04
 -2.1279292e+00   1.2291146e-04
  2.4449173e-01   6.1798794e-04
 -2.7331932e+00   1.2082827e-03
 -3.0230373e-02   6.0509215e-04
 -1.3665825e+00   2.0839726e-04
  1.7526951e+00   3.3205719e-04
 -6.2982601e-01   8.2297964e-05
 -1.5054607e+00   9.1842703e-05
  3.2358498e-03   7.5817265e-04
  4.7770569e-01   1.0585566e-03
 -1.3313535e+00   4.9624761e-04
  2.5418870e+00   2.1808020e-04
  2.3386873e-01   8.7367975e-05
  4.2034459e+00   1.2358722e-04
 -2.2345030e+00   1.0452976e-04
  2.5994210e+00   2.8597759e-04
 -1.9185706e+00   1.5887438e-04
 -1.0200523e+00   2.7508292e-04
  1.8592988e+00   5.1624753e-04
 -3.4327190e+00   1.7454263e-04
  1.5227717e-01   1.6697230e-04
 -3.4039125e+00   2.3700100e-04
  1.7092260e+00   5.7118747e-04
  5.0238472e-01   6.4636854e-04
  6.7479116e-01   2.8274563e-04
 -2.9286973e-03   1.8745945e-04
 -2.3185966e+00   2.3565441e-04
 -6.3660644e-02   4.5070430e-04
 -1.6096392e+00   2.7430235e-04
 -1.1652231e+00   2.2256345e-04
 -1.2832453e+00   1.5794487e-04
 -1.0741982e+00   2.1361705e-04
  1.9855843e+00   4.2651672e-04
 -1.4130810e-01   3.4963159e-04
 -2.6342863e-01   2.7538490e-04
 -4.8646593e-01   8.8533445e-05
 -3.0444164e-03   3.5242375e-04
  5.1673138e-01   3.1497340e-05
  1.9819744e+00   3.4787157e-04
  6.7692006e-01   2.3073863e-04
  1.0440497e+00   3.3616772e-04
  9.3941432e-01   2.9490696e-04
  4.4866275e-02   1.6120619e-04
  8.4775889e-01   4.9109552e-05
  2.1335614e-01   4.8314199e-05
  2.7208850e-01   4.8127546e-04
 -3.9609870e-01   3.1059454e-04
 -1.9554275e+00   1.6035058e-04
 -5.4032254e-01   1.0100678e-04
 -2.0630214e+00   6.7281740e-05
 -2.2727954e+00   4.3689387e-04
 -1.3288654e-02   1.6015091e-04
 -3.4018536e+00   1.5878324e-04
 -1.3221906e+00   1.2413417e-04
  5.4447019e-01   4.3232829e-04
 -2.8340604e+00   1.5070426e-04
  2.2688780e+00   7.5941189e-04
  1.2394968e+00   1.4366742e-03
 -2.2035224e+00   2.7991150e-04
 -2.1176853e+00   2.8622834e-04
 -2.1305838e+00   1.6970221e-04
  4.1267252e+00   2.1160031e-03
  1.9383268e-02   5.7656190e-04
 -6.7866907e-02   3.9492486e-04
 -4.7208387e-02   2.7001480e-04
 -2.8279753e+00   4.3283668e-04
 -1.1254382e+00   7.3511893e-04
  4.9121838e+00   3.9304921e-04
  8.7681401e-01   7.3293690e-04
  2.8302866e-01   4.4970875e-04
  1.4729283e+00   3.4725253e-04
  5.5764578e-02   2.7223810e-04
 -7.3600423e-01   3.0466128e-04
 -1.4082354e+00   3.4312427e-04
  1.0075172e+00   6.0594772e-05
 -6.3959718e-01   5.5326341e-04
  2.0098668e-02   2.2436550e-04
 -1.1678810e-01   5.6028477e-04
 -7.1379471e-01   2.3221869e-04
  1.5201598e+00   2.4829790e-04
 -1.9267241e+00   1.8065629e-04
 -6.5169770e-01   1.2424191e-04
 -2.3984113e+00   7.3661096e-04
  2.5865421e+00   4.6782722e-04
  3.7780378e-03   7.9556172e-05
 -9.9014974e-01   1.2105849e-05
  2.6202085e+00   1.1169469e-04
 -1.2991037e+00   4.2579035e-04
 -9.3679243e-01   3.6250745e-04
 -3.5677651e-01   5.2265613e-04
 -1.6480218e+00   1.8543698e-04
  1.8113480e+00   2.3762783e-04
 -7.2107607e-01   2.6960322e-04
 -1.2753756e+00   1.6493021e-05
 -5.1052250e-02   4.9964240e-04
 -2.0310457e+00   3.2147902e-04
  5.6449258e-01   3.5334082e-04
  1.7553556e+00   4.7542737e-04
 -3.0484598e+00   4.8003011e-04
  9.4657356e-01   1.4301013e-03
  3.4563324e-01   5.3720956e-05
 -6.5362471e-01   5.4989319e-04
 -6.5903181e-01   1.4932379e-04
  3.8677337e+00   3.3915837e-04
  4.0089169e+00   4.8477101e-04
 -3.2433448e+00   6.1134499e-04
  7.3645365e-01   6.1225210e-04
  4.0994219e-02   5.2243966e-04
 -5.8228970e-03   4.0456984e-04
  2.2235494e+00   3.4852821e-04
 -1.3367401e-01   4.8339629e-04
  1.9305179e+00   2.3220397e-04
 -1.5436773e+00   4.3457720e-04
 -1.2304671e+00   7.0290349e-04
 -1.1372235e+00   1.9720756e-04
  1.0321006e+00   4.4948873e-04
  3.4736731e+00   2.4730852e-04
 -8.2166165e-01   1.4697542e-04
 -1.4140787e+00   7.4076655e-05
  2.2849200e-02   4.2533147e-04
 -1.8191043e+00   7.4184034e-04
  6.2574261e-01   5.3339032e-04
 -1.2431453e+00   3.9406170e-04
 -1.6392905e+00   2.4436886e-04
  5.4657263e-01   5.8611145e-04
 -4.7623363e-01   1.4787824e-04
 -6.9518364e-03   2.7823931e-04
 -7.4902123e-01   2.5350275e-04
 -1.9595900e-01   8.1998057e-04
 -1.7226456e+00   6.4104790e-04
 -1.9926877e-01   3.6050536e-05
  4.6842095e-01   6.3994998e-04
  2.8082042e+00   2.9631631e-04
 -1.9618411e+00   3.5870567e-04
 -2.7386036e+00   2.1640380e-04
 -6.9190305e-01   1.0877515e-03
  2.2112602e-02   2.2486642e-04
 -1.3666235e+00   4.6031128e-04
  1.8018966e+00   3.3452443e-04
  4.4724746e+00   3.5083969e-04
  2.3487806e+00   6.3122204e-04
  2.8741515e+00   6.6980242e-04
 -2.0901620e+00   4.9532606e-04
 -1.0091482e+00   7.8504079e-04
  1.2811695e-01   4.0398820e-04
  1.6062638e-01   2.9619184e-04
  1.1814539e+00   1.5448997e-04
 -6.1760437e-01   5.7956210e-04
  1.0351017e+00   1.3229434e-04
 -1.7108527e+00   4.1874294e-04
 -4.7358018e-01   9.0891682e-04
 -5.7102489e-01   4.7628232e-04
 -2.2703760e+00   3.3592674e-04
  1.0754628e+00   2.7901580e-04
 -2.9481339e+00   4.5789604e-04
 -6.1016524e-01   9.2120332e-05
  1.2203995e+00   4.5919148e-04
 -8.4308904e-01   2.4929474e-04
 -8.4903967e-01   1.0000441e-03
  6.5839809e-01   5.6338357e-04
 -3.0577340e+00   3.4054805e-04
 -9.3735272e-01   1.0812441e-03
  8.8490963e-01   3.3261671e-04
 -2.7012879e-01   6.0170377e-04
 -3.6951886e-03   4.5711282e-04
  8.9612293e-01   2.0522526e-03
 -6.9846970e-01   2.2205143e-04
 -4.6159506e-01   1.0888152e-03
  2.1586270e+00   6.8361463e-04
  4.0044807e-02   4.8299905e-04
 -3.1578004e-02   1.4535876e-03
  2.2055063e-01   7.4906560e-04
  2.9837269e-01   1.1147028e-03
 -6.7213373e+00   1.0493054e-03
 -1.5982661e+00   7.7499391e-04
  3.6461660e-01   6.0317968e-04
 -1.5946152e-03   3.6151975e-04
 -1.2805409e+00   9.3856984e-04
  1.3037442e+00   5.3767196e-04
  2.6160204e+00   8.8135555e-04
  9.4371641e-01   3.8549970e-04
 -8.0682188e-01   2.8153544e-04
  5.8501440e-01   5.4434792e-04
 -5.1502318e+00   6.9910013e-05
  1.3152559e+00   5.3543842e-04
 -3.6769313e-01   1.1901263e-04
  9.1964114e-01   4.5371996e-04
  8.1376535e-01   6.6000130e-04
  5.9500374e-03   8.7301589e-05
  4.5549960e+00   5.9114146e-04
 -2.6816113e+00   6.8817251e-05
  3.1982321e-01   5.3558766e-04
  2.8028488e-01   2.2335627e-05
 -2.1542995e-03   8.3079305e-04
  5.1502936e-04   3.3444870e-04
  3.2673023e+00   3.9949091e-04
  2.2330902e+00   9.1077076e-05
 -9.8405468e-01   1.9061670e-04
 -2.7568636e-02   1.8568127e-04
 -8.0049074e-01   1.2037457e-04
 -1.0871955e+00   5.8275484e-04
  1.6605526e+00   1.0279680e-04
  9.4103521e-01   8.9986785e-04
  6.2254095e-01   7.6441342e-05
  3.0670083e+00   2.8675435e-05
  1.3948132e+00   4.9286033e-04
  2.7048585e+00   3.0214147e-04
 -1.6633162e+00   2.6751804e-04
 -3.5883942e+00   1.7227748e-04
 -2.1824374e+00   3.1356071e-04
  2.3136415e+00   2.0074230e-03
 -3.7206032e+00   4.5150763e-04
 -5.0089641e+00   6.2351534e-04
  3.9957135e+00   2.3965363e-04
 -9.8391157e-01   5.2684604e-04
  2.6384804e+00   1.3019243e-04
 -5.6456809e+00   3.8984561e-04
  2.6840301e+00   1.2960403e-03
  1.3782252e+00   1.0527449e-03
 -2.2403872e+00   3.6131075e-04
  2.0583737e+00   6.0035643e-04
  8.6495560e-01   7.0504402e-04
 -2.5702972e-02   1.9663107e-04
 -2.0019631e+00   2.9408938e-04
 -6.8560109e-02   3.9501392e-04
  3.7062554e+00   4.5929078e-04
  6.0927588e-01   9.1380929e-04
 -3.5829610e-01   2.7212594e-04
  1.1259808e-01   4.9892621e-04
  7.0079613e-01   5.1938562e-04
 -6.2728280e-01   9.2927658e-04
 -2.6234797e-01   7.7500084e-04
  1.5156907e+00   3.5987829e-04
 -1.0566261e+00   1.7965208e-04
  2.2836471e+00   7.2493931e-05
 -1.0219187e+00   1.0136084e-03
  1.2447476e+00   1.4205110e-04
  1.0787933e-01   1.8411265e-04
  1.0795666e+00   1.0273317e-04
 -3.5811761e-01   8.3413295e-04
 -1.8271313e+00   2.9488068e-04
  6.4900589e-01   2.9748131e-04
  2.1112785e+00   3.6513200e-04
 -5.9731770e-01   7.0482475e-04
 -3.4441298e-01   9.3958352e-04
 -2.4379158e+00   3.5225091e-04
  3.1889379e+00   3.4793428e-04
 -1.9696294e+00   4.7749374e-04
  8.8929105e-01   4.0463833e-04
  5.9787676e-02   2.6988008e-04
 -9.3884478e+00   3.8597980e-04
 -3.9004419e+00   4.5285310e-04
  2.7852743e+00   2.1132176e-04
  2.5667567e+00   5.4831681e-04
 -2.4762349e+00   9.5822616e-04
  1.5019143e+00   5.1365193e-04
 -6.6541451e-01   2.6529952e-04
  3.3762407e+00   9.1013928e-05
  1.1469246e+00   2.6476238e-04
 -2.5816473e-01   3.8330330e-05
 -4.3833899e+00   3.9309429e-04
  2.5900775e-01   6.1752374e-04
  3.5424538e+00   2.8262241e-04
 -6.2445611e-01   2.2531798e-04
  2.3035984e+00   2.4889331e-04
 -6.6999573e-01   3.8897342e-04
 -7.2512758e-01   1.7616067e-04
 -1.3612935e-03   5.8680709e-04
 -1.2804081e+00   1.0259581e-03
  9.6531773e-01   1.4046259e-04
 -9.7425741e-01   5.3770516e-05
 -5.9007225e+00   1.8766115e-04
 -8.6489975e-02   6.5785105e-04
  1.3924197e+00   2.6122527e-04
 -3.9430544e+00   1.5703043e-03
  8.7780100e-01   5.3340464e-04
  1.0756351e+00   1.5996748e-03
  2.4299093e-01   5.5075390e-05
  2.4709070e-01   3.3063381e-05
 -2.1525331e+00   2.2328270e-04
  2.1303370e+00   9.6044154e-04
 -2.5308794e-01   6.8866101e-04
 -1.2556092e-02   1.0820116e-03
  2.5363064e-01   8.4281934e-04
  5.3987724e-01   1.6072268e-03
  9.1327175e-02   6.3418114e-04
  1.4976020e+00   9.5178408e-04
  1.9391277e+00   3.5425220e-04
 -4.3239003e-01   6.4015138e-04
  4.0745890e-01   1.4071015e-03
  1.0697285e+00   3.9044343e-04
  1.8160150e-03   3.8035988e-04
  4.1004461e-01   1.1781097e-03
  1.2702143e+00   5.4242258e-04
  1.7570062e+00   4.8825241e-04
  1.2478112e+00   2.3340483e-03
  1.9057765e+00   1.2525792e-03
  3.6938190e+00   1.5980275e-03
 -2.1391985e-01   6.9829455e-04
  9.1681987e-01   6.6981360e-04
  8.6581367e-01   1.2347895e-03
  9.1814023e-01   4.6617951e-04
  2.2129538e+00   6.2972272e-04
  2.2068811e-03   7.3988648e-04
  2.1125875e+00   7.2463712e-04
  8.6582667e-01   6.8777672e-04
 -2.7527696e-01   3.3151516e-04
  2.1143198e+00   3.4456905e-05
 -1.7385769e+00   8.6716020e-05
 -2.1912310e-01   3.7013006e-04
 -2.7651846e-01   2.0957498e-04
 -9.9421841e-01   1.9348615e-04
 -9.8182298e-02   2.0558327e-04
  9.0442246e-01   5.4601213e-04
  3.1340900e-01   2.1952874e-04
  1.1308354e+00   7.3938740e-05
 -1.6107585e+00   1.8395130e-04
 -1.5279897e-01   9.5599331e-05
 -8.8055819e-01   2.4020826e-04
 -5.1925683e+00   5.8560405e-04
 -1.5659258e+00   4.0766751e-04
  5.0478499e-02   4.3641965e-04
  3.2217834e-02   1.9826282e-04
 -3.8442537e-01   1.6906856e-04
  1.2401705e+00   2.3791392e-04
 -6.0360275e-02   2.8460869e-04
  2.0537460e+00   1.7902566e-04
 -8.1204700e-01   7.0559978e-04
 -2.8779933e-01   1.0954626e-03
  1.8146238e+00   4.9567944e-04
 -1.2479172e+00   7.5168704e-04
 -8.9133024e-02   3.0438221e-04
 -2.3654730e+00   8.5230201e-04
 -3.3003241e-01   8.9525274e-05
 -1.1112295e+00   5.0624262e-04
 -7.3017579e-01   1.4360251e-03
 -1.2030424e+00   3.5226252e-04
 -1.7774452e+00   5.3155061e-04
  2.0733656e-02   2.8175779e-04
 -1.4290956e+00   3.7667356e-04
 -1.7683659e-01   2.6748644e-04
  1.3149433e+00   2.9564477e-04
 -2.9031618e+00   1.8045119e-03
 -5.8433366e-01   3.2301812e-04
  1.2353411e+00   5.3835342e-05
 -3.8724956e-01   9.1900351e-05
  1.2360145e+00   5.2486750e-04
  6.1285947e-02   2.1799146e-04
 -1.4843820e+00   5.4615445e-04
  4.3334599e+00   1.1921217e-04
 -1.9727728e+00   2.0491990e-04
  2.6198864e-01   2.9263287e-04
 -6.4111876e-01   8.5432810e-05
  3.1354306e+00   2.9333003e-04
 -1.1278833e-01   4.7712825e-04
  1.7782805e+00   1.6698052e-04
 -7.6569289e-01   7.3145580e-04
  8.4134318e-02   4.4843648e-04
  1.2620208e+00   7.1316503e-04
 -1.7341360e-01   4.5166333e-04
 -2.8645501e+00   1.8548915e-04
 -6.2896937e-01   4.7775902e-04
 -1.5161915e-01   2.7801536e-04
  2.5500250e-01   4.2704568e-04
 -2.8692186e+00   4.4400309e-04
  3.0012279e+00   2.0764301e-04
  1.3642197e+00   2.3908142e-04
  2.3300260e-02   5.7515601e-04
  7.5609851e-01   2.7896161e-04
  1.6530325e+00   6.4072543e-04
  1.4014573e-01   1.3583158e-04
 -4.9276724e-01   3.5384332e-04
  6.4294195e-01   1.5165714e-03
  6.3724917e-01   6.1942718e-04
 -2.8780026e-02   2.6439136e-04
 -3.1628963e-01   5.8903599e-05
 -4.3367657e-01   2.0974495e-04
  1.4624592e+00   1.9710953e-04
 -6.7057550e-01   5.3227937e-04
 -1.6464487e-01   5.1100913e-04
  1.2122170e+00   5.0608674e-04
 -1.9919719e+00   1.8147161e-04
  8.4895831e-01   2.0561021e-04
  8.1511688e-01   5.3001073e-04
  2.1199744e+00   8.9095338e-05
 -2.0932615e+00   5.2647537e-04
 -1.2994854e+00   2.7367682e-04
 -2.5175849e-03   8.1478420e-04
 -3.7387919e+00   1.4047690e-03
  3.8249919e-01   8.9553389e-04
 -1.8480600e+00   1.9194243e-03
  9.0740874e-02   8.7948557e-04
 -2.0126235e-03   5.1150483e-04
 -7.7296531e-01   1.7335447e-03
  1.6472099e+00   1.9847960e-03
 -2.9339528e+00   9.0645975e-04
  3.2937041e-04   1.1945831e-04
  7.9739326e-01   2.4772747e-04
 -2.3307201e-01   4.8002921e-04
  8.1999797e-01   1.2250743e-03
 -5.0043459e+00   2.6395076e-04
  1.2048717e-03   1.4985242e-04
 -1.9091599e-02   9.8959694e-04
 -5.3418934e-01   6.1585795e-04
  9.7770303e-02   8.9217181e-04
 -4.3256527e-01   7.0180115e-04
  2.3999786e+00   8.2816737e-04
  3.1536450e+00   1.4827172e-04
 -5.3343433e-01   6.5321910e-05
  3.9526677e+00   1.1816003e-03
  1.8016899e+00   1.1195358e-03
  6.8687063e-01   6.8099936e-04
  6.9012415e-01   3.8042787e-04
  9.2910612e-01   3.7598531e-04
  2.5098672e+00   1.3535027e-04
 -1.3300352e-03   3.9379229e-04
 -1.5495857e+00   1.4268059e-03
  1.0783726e+00   4.4088441e-04
  9.2473757e-01   2.3145534e-05
  4.9604827e-01   3.7196769e-05
 -1.4251610e+00   1.5701755e-04
  1.4759928e-01   3.5517358e-05
 -1.0932729e-01   4.9681170e-04
  4.2723575e+00   5.9074606e-05
 -4.7283649e-01   9.6533942e-04
 -4.5273066e-01   1.2334688e-04
 -7.0895687e-02   1.0730515e-04
  2.4085765e-01   3.4987729e-04
 -3.1153262e-01   1.4013279e-04
  2.4719934e+00   4.7067011e-04
 -1.7688315e+00   1.1217919e-04
 -5.7213050e-01   5.2130257e-05
 -1.7619894e+00   8.1378384e-04
  2.3619366e+00   3.5271465e-04
 -1.0377572e+00   2.6669988e-04
  2.8366554e-01   3.6568346e-04
 -1.1539520e+00   4.1230940e-04
 -1.3669086e-01   2.6403792e-04
 -3.0729518e+00   6.8964675e-04
  2.3415999e-01   4.4989097e-04
  2.0260785e+00   5.4508785e-04
 -2.0046182e-01   4.3518443e-04
 -5.6689125e-01   3.8737000e-04
 -1.0387121e+00   5.3059572e-04
  2.4675415e+00   8.0054573e-04
 -1.7724049e-01   4.4742750e-04
  3.9526433e-01   4.6041500e-04
  3.0356258e-01   2.4759833e-04
  1.5457757e+00   9.9754274e-05
 -5.6558717e-02   3.2181220e-04
  1.2438560e+00   1.8683798e-04
  1.5268041e+00   6.3964620e-04
  1.4479486e+00   6.1805360e-04
 -5.8671004e-01   5.5084995e-04
 -1.8716820e+00   1.7088310e-04
  1.9117463e+00   2.2371413e-04
 -1.1084064e+00   6.8609203e-05
  1.3091900e+00   4.9836090e-04
 -1.9068626e+00   1.0756640e-04
  1.5365188e-01   7.9735037e-04
  1.2832332e+00   2.4285454e-04
 -2.2347528e-01   6.5878144e-04
  2.4301252e+00   1.8921102e-04
  1.9040824e-01   5.3071498e-04
 -3.1323552e-01   1.2876542e-03
  6.1753363e-04   4.7725817e-04
  2.7049057e+00   1.0721521e-03
 -2.8295780e-02   2.3290716e-04
 -2.5228602e-01   1.7581250e-03
 -4.8682165e+00   4.7177533e-04
 -1.7917373e+00   3.8221810e-04
  2.7523057e+00   9.2232588e-04
 -1.4593453e+00   8.3755958e-04
 -3.2457502e+00   5.5864663e-04
 -1.1386678e-01   3.8597547e-04
  5.8144614e-02   1.1447861e-03
 -2.6992378e+00   1.2375982e-03
 -6.3360059e-01   7.2889926e-04
 -5.0423306e-01   5.4793706e-04
  3.7774611e+00   2.0841250e-04
  2.7904987e+00   1.1192525e-03
 -2.5435665e-01   9.4176175e-05
 -5.8781826e-01   5.8016850e-04
  1.5125442e-01   3.5476274e-04
  2.6205488e-02   2.0621315e-04
 -1.4484615e+00   5.7066977e-04
 -2.8358486e-01   2.2748378e-04
  5.0366378e-01   7.3699182e-04
  2.0698402e+00   4.0465247e-04
  1.5035712e+00   5.0580391e-04
 -7.8082609e-01   4.3254095e-04
 -1.7390378e-02   3.9379831e-04
  1.2106365e+00   1.5936757e-05
  1.4107535e+00   4.1424202e-05
 -1.3002889e+00   3.2443090e-04
 -5.4409564e-01   1.9821025e-04
 -2.4083669e+00   2.7612850e-04
  8.6079353e-01   1.6568591e-05
  1.3525046e+00   3.8105602e-04
  1.2908222e-01   1.2701830e-04
  5.6983393e-01   3.1460575e-05
  4.7968608e-01   2.1864785e-04
  2.8771200e+00   1.2545886e-04
  7.1280444e-01   7.1535651e-05
 -4.9677010e+00   2.1598150e-04
  1.1679828e+00   3.1205191e-04
 -1.2023569e+00   4.5019304e-04
 -1.4607420e+00   4.8545812e-04
  2.6645970e-01   1.3460036e-04
 -6.8046749e-01   3.2984235e-04
 -1.5013680e+00   8.5481523e-05
 -1.7371908e+00   4.1972747e-04
  6.2139833e-01   2.9808821e-04
 -6.3401395e-01   1.1312636e-03
 -1.9785501e-02   4.5578569e-04
 -1.4185952e+00   3.7156328e-04
  2.0033925e+00   8.5519212e-05
 -2.1310794e-01   1.7012173e-04
 -4.9302530e-02   1.4341484e-04
  3.0736834e-02   9.9490258e-05
 -3.4243414e-01   5.6904787e-04
  5.5717498e-01   3.3762527e-04
 -3.6939981e+00   2.7760727e-04
  1.9667585e+00   2.2085794e-04
  8.7351334e-01   4.0745316e-04
 -9.8595843e-02   1.3762260e-04
  3.6113781e-01   3.1207807e-04
 -1.0901109e-01   3.3702198e-04
 -1.9705429e+00   5.5585307e-04
  1.9438920e+00   2.3591208e-04
  2.7117105e+00   5.0490493e-05
  1.4413168e+00   1.9249794e-04
 -1.6552775e+00   3.2508312e-04
 -4.5583606e-01   5.4687774e-04
  1.2428310e+00   2.9795096e-04
  1.2036768e+00   9.0470194e-04
  1.0574654e+00   2.8176873e-04
 -1.8645855e+00   4.3195274e-04
 -7.6509827e-01   5.0314044e-04
 -1.1990690e+00   5.3078396e-04
  1.4072268e-01   9.4126357e-04
  3.0536282e+00   5.3909374e-04
  7.9395807e-01   1.0753521e-03
 -7.4313170e-01   8.6863365e-05
  1.8726969e+00   4.2850146e-04
  7.9536274e-02   4.7040079e-04
  3.9755135e+00   3.5614165e-04
  2.3894897e+00   6.9725106e-04
  8.3807331e-01   4.1015539e-04
  1.2853833e+00   4.7512239e-04
 -1.1594934e+00   1.9919741e-04
 -1.1232734e+00   2.1937194e-04
  2.3808032e-01   1.2133523e-04
  1.2039789e+00   1.9136045e-04
 -7.0576078e-01   3.8472741e-04
 -8.2153147e-01   2.6899290e-05
  2.1697884e+00   3.4443120e-04
 -1.6184996e+00   4.5171048e-04
  7.9264903e-01   8.4513114e-05
  4.2917067e-01   3.3462013e-04
 -1.2258502e+00   2.0885064e-04
  5.2429640e-01   3.0593600e-04
  1.0068405e+00   1.2285827e-04
  1.0777844e-01   5.2476986e-05
 -3.6866376e-01   5.4619351e-04
  5.1644754e-01   3.7688698e-04
 -2.3348527e+00   5.3587944e-05
 -7.2683007e-02   1.3080434e-04
  2.9180095e+00   6.0236634e-04
  1.1650541e+00   1.3743251e-04
  4.3043437e+00   6.0183828e-04
  2.4379325e-01   2.2187585e-04
  1.3900418e+00   1.2103155e-03
 -1.6402611e-01   5.7447854e-05
 -2.9830384e+00   6.5778440e-05
 -2.4018254e+00   1.5605119e-04
  1.8272258e+00   4.4930409e-04
 -7.6716000e-01   7.2009809e-04
  3.5306951e-01   2.3417719e-04
  3.0272810e+00   3.1104969e-04
  2.7938268e+00   6.8711460e-04
 -3.6090057e+00   4.1527438e-04
 -1.4137777e+00   1.3425348e-03
  1.6228615e-01   1.6672650e-04
  1.9902960e+00   4.5876845e-04
  4.0868006e+00   2.6047774e-04
 -1.1171129e-01   5.1478809e-04
  1.9312578e-03   6.0409855e-04
  9.5473951e-01   3.8590614e-04
 -9.3652415e-01   5.5213697e-04
 -2.5921230e+00   1.6963335e-04
  2.1183452e-01   4.7902786e-04
 -4.1235967e+00   1.6007625e-04
 -1.4889179e+00   1.0239010e-03
 -2.2827469e-01   6.3420093e-04
 -1.5539373e+00   5.0568435e-04
 -1.6225315e+00   1.7487560e-04
 -1.6532489e+00   1.9051977e-04
  1.8932112e+00   2.3878903e-04
 -2.4430909e+00   2.4482928e-04
 -2.3191465e-01   4.6926329e-04
  6.7403263e-01   3.9875714e-04
  3.5077655e-01   6.1953272e-04
 -3.7454724e-01   4.7265621e-05
  4.7314942e-01   8.8008492e-05
 -1.9888380e+00   1.4905156e-04
 -2.6058257e-01   1.2817120e-04
 -4.4093153e-01   3.0502450e-04
  2.8119659e-01   2.1002024e-04
 -1.5662085e+00   2.7448230e-04
  8.3820128e-01   1.0351123e-04
 -4.4554085e-01   1.1148560e-04
  1.5843990e+00   1.6175993e-04
  1.2713335e+00   2.2341029e-04
 -2.5447686e+00   3.7033530e-04
 -5.5559373e-01   1.4935208e-04
  9.0235466e-01   2.6129055e-04
 -1.0936620e+00   5.4980163e-04
 -2.3274575e-01   1.0290024e-04
 -2.2534914e+00   2.6337572e-04
  8.0055064e-03   1.7140817e-04
 -7.1861798e-01   2.0391673e-04
  4.7827026e-01   3.0595821e-04
 -1.3302770e+00   7.1095780e-04
  6.4196956e-01   4.0761958e-04
  3.4325447e-02   1.1862240e-04
 -4.3964025e-01   1.0959044e-04
  2.2596395e+00   2.4068417e-04
  1.1581225e+00   2.1809243e-04
 -4.3430969e-01   8.9075053e-05
  2.4323018e+00   3.9110400e-04
 -1.7552602e-01   2.2322864e-04
  2.2122142e+00   2.6767582e-04
 -4.6997395e-01   2.5653897e-04
  9.5175070e-01   1.4108166e-04
  1.2080752e+00   3.3491824e-04
  7.7559960e-01   5.9519120e-05
  2.4934290e-01   4.2966605e-04
 -1.5850221e+00   1.9011344e-04
 -1.2723994e+00   3.9506773e-04
 -4.2462528e-02   3.2509757e-05
  4.2392945e-01   1.3780383e-05
  3.5267341e-01   6.8988607e-05
  2.6316226e+00   2.2709151e-04
 -1.5175668e+00   5.3795264e-04
 -3.7193269e-01   1.0594061e-04
 -7.9148304e-01   7.5368688e-04
  8.0084866e-01   1.5368946e-04
  6.4580125e-01   9.9000041e-05
 -1.1141172e-01   1.8082454e-04
  3.8027191e+00   2.3251351e-04
 -1.1339329e+00   5.8373489e-04
 -4.4408574e+00   4.3741113e-04
 -8.0609280e-01   2.1764176e-04
  1.9082958e+00   9.6621581e-05
  1.6993604e+00   1.1308845e-04
  3.7007751e+00   1.7823842e-04
  1.2459687e+00   1.2759738e-04
  4.7912198e-01   9.4327428e-05
 -2.5118792e+00   1.8180194e-04
  1.2465645e-01   8.9892412e-05
 -2.7562943e-01   2.2161935e-04
  2.2812662e+00   9.4342955e-05
  2.1691308e+00   1.1036259e-04
 -4.9353290e-01   3.9120212e-05
 -2.1207419e-01   1.1701032e-04
  5.3608525e-01   2.7008758e-05
 -1.8230195e+00   5.0970365e-04
 -1.3894449e+00   4.5732773e-04
  2.1661570e+00   8.4787454e-05
  4.6521388e-02   2.0009679e-04
 -1.2969819e+00   1.4048041e-04
 -2.1550481e+00   2.2081539e-04
 -4.0674010e-01   3.7597758e-05
  2.7267153e+00   1.7448685e-04
 -7.7064985e-01   1.6749506e-04
  1.4105545e-02   1.3725423e-04
 -1.2694161e+00   5.1747462e-05
 -5.1917081e+00   1.4679562e-04
 -4.8286600e+00   3.3387003e-04
 -2.3004080e-01   5.0847110e-04
 -7.5646096e-01   3.6363621e-04
  7.0374131e-01   4.4948791e-04
  1.3211457e+00   1.1582504e-03
  4.6733660e-01   3.2060177e-04
 -3.7399697e+00   7.7571283e-05
  7.6795502e+00   8.7027648e-04
 -1.2456404e+00   7.9016580e-04
 -5.2402806e-01   5.9906638e-04
 -2.6281965e+00   4.8279026e-04
  1.4823934e+00   4.7238587e-04
 -2.6311281e-01   8.8506046e-04
  2.7974699e+00   6.7402452e-04
  4.7640288e-01   5.8144866e-04
 -2.6554530e+00   4.1329209e-04
 -5.5715358e-01   3.2504561e-04
 -1.5431928e-02   3.0145550e-04
 -6.0337168e-01   5.7561958e-04
 -1.2222505e-01   8.5444946e-04
  1.8670315e+00   4.2244230e-04
 -1.6848521e-01   3.8859947e-04
  3.4291547e-02   3.7927937e-04
 -2.5905356e+00   6.9451798e-04
  3.2588157e-01   1.1928591e-04
  8.4301108e-01   4.8266354e-04
 -3.0040845e-01   9.9957117e-04
  3.1242555e-01   4.0477247e-04
 -2.0073202e+00   2.2651680e-04
 -2.1153197e-01   4.5935041e-04
  1.7593642e+00   1.1289264e-03
  1.3991594e+00   3.0755726e-04
  1.2540838e+00   6.3855277e-04
 -3.0128628e-01   7.0483406e-04
  4.9305552e-01   6.0286111e-04
 -7.7131504e-01   2.7461461e-05
  2.5694268e+00   2.1412193e-04
  5.8450742e-04   8.3286111e-04
  4.3556374e-01   3.8820785e-04
  1.0093792e-01   2.8065292e-04
 -3.0075853e+00   2.3762396e-04
  1.3411742e+00   1.8219398e-03
  1.8301393e+00   5.4230546e-05
 -3.6356710e-02   8.7626031e-05
 -1.3724513e-01   1.1364560e-03
 -4.3563324e-01   4.2277676e-04
 -1.7853597e+00   9.5891347e-04
 -2.5906248e+00   1.1768479e-04
  3.8208532e+00   5.5506005e-04
 -2.8273356e-01   1.3337032e-03
  3.4079359e+00   2.2870023e-04
  1.0677170e+00   8.0419518e-04
  3.8485360e-01   5.4751639e-04
  1.5805453e+00   5.9814641e-04
 -5.7521965e-02   2.6669828e-04
 -9.4067928e-04   9.4308704e-04
 -8.8748097e-01   2.2550903e-03
  1.0273477e+00   4.9290608e-04
 -5.9632236e-01   3.1462263e-03
 -3.5209100e+00   1.7693940e-04
  1.5095233e+00   4.5805750e-04
 -1.8709080e+00   3.2608741e-04
 -8.6987865e-01   6.5271812e-04
  7.3591940e-02   7.9599838e-04
  3.3514103e-01   1.1241015e-03
 -1.5293638e+00   1.4287973e-04
 -2.9252868e+00   4.6389035e-04
  3.6517551e+00   3.8158911e-04
  3.6575630e+00   3.6127059e-04
 -1.1023262e+00   5.8855815e-04
 -2.7329361e-01   1.0203266e-03
 -9.8496890e-01   4.8963621e-04
  1.7000403e+00   2.1149282e-04
 -3.4405360e+00   1.0147235e-04
  1.4692580e+00   3.6652404e-04
 -2.3522129e+00   2.7607649e-04
 -2.1200593e+00   1.1970105e-04
  1.3847762e+00   1.8982140e-04
 -1.3185084e+00   4.5453178e-04
 -2.0739460e+00   7.5239521e-05
 -1.5183636e+00   5.6215329e-04
 -2.8390555e+00   4.6993233e-04
 -1.5798971e-01   3.9695704e-04
 -1.8124297e-01   6.6540530e-04
 -3.9546051e+00   2.7856597e-04
  1.0106198e+00   4.5208941e-04
 -4.4689088e+00   4.8921024e-04
 -1.4520858e-01   2.8614706e-04
 -8.9358109e-01   2.6280837e-04
 -1.3448745e+00   2.2241531e-04
 -1.5805647e+00   1.9677023e-04
 -9.6957314e-01   2.3853697e-04
 -8.9718121e-01   2.5494094e-04
 -1.6351529e+00   7.4114971e-04
 -3.0042632e+00   4.6207430e-04
  3.6976430e+00   4.4609414e-04
  3.0075524e+00   3.7984565e-04
 -1.6010795e+00   1.1783947e-04
 -1.2045182e+00   4.2539836e-05
  4.0063753e+00   7.1630209e-05
  5.1379114e-01   3.2088201e-04
  2.1806574e+00   1.9686183e-04
 -1.4437515e+00   2.7588825e-04
  1.8865620e+00   1.3110660e-04
 -4.7479460e-01   1.8540128e-04
 -1.2648815e+00   7.0110276e-05
 -4.2713750e-03   2.8605814e-04
  1.0281483e+00   3.8744751e-04
 -8.0346668e-01   1.4983380e-04
 -5.7375532e-01   1.1035933e-04
  4.4156924e-01   8.5948072e-05
  1.4228915e+00   1.0168966e-04
  3.6668999e+00   2.1050421e-04
  1.9971241e+00   1.0798513e-04
  2.8156477e-01   1.2694445e-04
 -3.6539027e-01   4.9541454e-04
  1.6195869e+00   2.5521792e-04
 -7.7805746e-01   1.5661710e-04
  1.8426141e-02   1.7767657e-04
  1.7722769e+00   2.8678606e-04
  2.0249550e+00   3.9168441e-04
 -1.4799535e+00   2.0991713e-04
 -5.7577505e-03   4.5381396e-04
 -5.4610282e-01   3.5818864e-04
  9.8643434e-01   1.7285768e-04
 -8.2163787e-01   2.3816581e-04
  4.6592700e-01   8.0263388e-05
  9.2444372e-01   2.0235410e-04
  9.6441615e-01   1.4917410e-04
  1.3710914e+00   4.4311234e-04
 -1.0812556e+00   2.7858533e-04
  2.2617674e+00   1.2849426e-04
  3.1108594e+00   2.0954017e-04
 -6.3846695e-01   6.4227192e-05
 -1.3213298e+00   1.8931815e-04
  2.3532858e-01   6.6122433e-05
 -8.9116293e-01   4.0348209e-04
 -1.5851204e+00   2.5833573e-04
  3.2803869e+00   2.3998762e-04
  2.6911211e-01   4.0846182e-05
  1.3001436e+00   2.5232078e-04
 -1.1449647e+00   2.5174810e-04
  5.3619087e-01   7.9998426e-05
 -1.3586075e+00   5.2350614e-04
  2.3549044e+00   2.9251652e-04
  1.3130009e+00   3.3088689e-04
  1.3205806e+00   6.6537963e-04
  1.9906735e+00   1.9335716e-04
 -1.7960753e+00   7.6237420e-04
 -2.0912577e-01   5.4384512e-04
  3.3896496e+00   4.1360644e-04
 -2.4731107e+00   5.3278590e-04
 -1.3408797e+00   2.3773858e-04
  6.5740848e-01   4.5073521e-04
  2.2350456e-01   7.3219888e-04
 -2.4318714e+00   8.5177162e-04
  4.6775951e+00   3.7628124e-04
 -7.8936833e-01   1.7535272e-04