 -2.5793378e+00   1.4956706e-04
 -2.2495329e+00   2.7563219e-04
 -1.0185069e+00   1.2352168e-04
 -7.1512693e-01   2.6793597e-04
  8.8032871e-01   6.8261630e-05
  3.9423713e-01   1.4827680e-04
  1.4180022e-01   7.9096513e-05
  2.0093737e+00   1.1092457e-04
 -1.7323458e+00   1.3597455e-03
 -1.0139143e-01   1.1444585e-04
 -2.4674451e-01   4.1690035e-04
  2.5073488e+00   4.4483636e-04
 -7.5821972e-01   3.4157076e-04
 -2.0202547e-01   4.2687685e-04
  2.1184331e-02   2.2496218e-04
 -4.9934557e-01   8.8214304e-04
 -2.3217504e+00   2.6394453e-04
  3.1109037e-02   7.6005596e-04
  3.5963154e-01   2.2734450e-04
 -1.1516833e+00   5.1885139e-04
  1.9984177e+00   3.5322236e-04
 -1.6932036e-01   8.5357291e-04
  5.3664845e-01   4.4250576e-04
  1.3559127e+00   1.4216096e-04
 -5.0716245e-01   6.6829976e-05
 -1.3294367e+00   4.0888372e-05
 -4.4396987e+00   5.2192505e-04
  1.1379071e+00   5.0872669e-04
  3.9661109e+00   2.9243698e-04
 -2.7469811e+00   1.8453764e-04
  5.1620703e+00   7.7119359e-05
  2.3680089e-01   9.4812916e-05
  1.5301515e+00   1.0651788e-04
  1.0053184e+00   3.7626224e-04
 -1.5427213e-02   2.4961159e-04
 -1.7181146e+00   3.4056499e-04
  7.5669336e-01   1.1486265e-04
 -1.9195082e+00   1.8863023e-04
  6.8492937e-01   6.7363167e-04
 -5.5123079e-01   1.5081768e-05
  6.3315630e-01   2.5667550e-04
  7.9882085e-01   2.5864801e-04
  2.1257782e+00   6.5304618e-04
  2.2539210e+00   1.7793818e-03
 -1.3480053e+00   2.4045860e-04
  6.0719496e-01   2.6401269e-04
 -5.6900015e+00   2.6105437e-04
  6.4841136e-02   6.0744409e-04
 -1.4634070e-01   6.9850779e-05
  1.0159005e+00   9.0481370e-04
  1.0603220e+00   1.1094783e-03
 -2.0776885e+00   1.6677419e-04
  2.7066860e+00   1.8091637e-04
  2.2584367e-01   1.4926530e-04
  1.4629257e+00   1.1630309e-03
  2.0716202e+00   3.9111346e-04
 -2.9562885e-01   2.0754703e-04
 -1.9869745e+00   4.3010814e-04
 -2.1597838e+00   1.2841403e-04
 -1.1433114e-02   7.4488933e-05
 -1.1670156e+00   2.8816177e-04
 -2.7027328e+00   8.8850415e-05
 -1.8409268e+00   8.9009583e-04
 -2.1709936e+00   1.6709667e-04
 -1.1599698e+00   3.0067438e-04
  3.0877407e+00   3.4344575e-04
 -8.0080636e-02   1.4852925e-04
 -2.8599169e+00   2.9234102e-04
  9.8452270e-01   2.0624137e-04
 -1.1366321e+00   6.7023572e-04
 -4.6798953e-01   1.0113056e-04
 -2.0267554e-01   2.0744512e-05
  5.6888763e-02   7.4250231e-05
  2.4365319e-01   7.2614152e-05
 -2.2573919e+00   3.7740167e-05
  3.8209481e+00   1.4437847e-04
  2.7418397e-02   9.8500728e-05
  1.7076101e+00   2.7176144e-04
 -2.0654440e+00   1.2527921e-05
 -1.6620136e+00   3.7498403e-04
  2.1832755e-01   7.1437949e-05
 -1.4171164e+00   4.4828330e-04
 -1.5132284e+00   3.7605112e-04
  6.0546046e-01   3.0446105e-04
  2.5709398e+00   4.0673837e-04
 -9.3568581e-01   3.9935723e-04
  1.1342891e+00   1.7857725e-04
  1.2793911e+00   1.8346570e-04
  1.0249020e+00   1.2097857e-04
 -6.4903140e-01   3.5123294e-04
  2.8292341e+00   1.2912022e-04
  6.4954317e-01   3.2377546e-04
  8.5175347e-01   4.1734244e-04
  1.0699919e+00   2.2540659e-04
 -5.6595847e-02   3.0382493e-05
 -3.8483367e+00   1.9076893e-04
  7.4277973e-01   3.0710906e-04
  4.2699929e-02   2.2943722e-04
 -1.9796253e+00   3.0218455e-04
  3.1327382e-01   2.8407981e-04
 -2.7698994e+00   3.3482030e-04
  1.7360063e-01   6.2077030e-05
  6.8211585e-01   1.3571531e-04
  6.2694418e-01   7.4545795e-05
 -1.0021563e-01   2.5534810e-04
 -2.1837816e+00   1.6334318e-04
 -8.5563028e-01   8.9035188e-05
 -1.1568900e+00   1.1260886e-04
  3.2650676e-01   3.3840063e-04
 -1.6875844e-01   1.1622471e-05
 -1.7813655e+00   4.9218471e-04
 -4.6424773e-01   1.2106148e-04
  1.6624956e+00   4.4030923e-04
 -2.4163589e-01   2.6144483e-04
  1.6029997e+00   3.3031401e-04
  5.5838412e-01   3.0666604e-04
 -3.0343172e-01   6.8647321e-04
  1.1995648e+00   2.2982544e-04
  1.6314282e+00   3.6767038e-04
 -5.7568932e-01   2.9734051e-04
  1.4782000e-02   4.8689230e-04
 -1.4653196e+00   2.9248651e-04
  1.0188479e+00   1.5048358e-04
  4.6900740e-01   9.9152421e-05
  1.1184627e+00   3.7586916e-04
 -4.8041797e-01   9.6051104e-04
 -1.4376653e+00   7.6293567e-04
 -3.0482766e-01   7.4969686e-04
 -3.4540143e+00   4.7027992e-04
 -7.2273456e-02   1.3473976e-05
  2.0991886e+00   2.6538462e-04
  7.4853742e-01   1.9184664e-04
 -4.8489884e-01   9.5009996e-04
  6.6254487e+00   4.1123308e-04
 -1.4940035e+00   4.1094195e-04
  5.4682430e-02   2.8089836e-04
 -1.2327129e+00   1.4217020e-04
  3.7708500e-01   1.3851983e-04
  7.6758820e-01   2.3661459e-04
  2.2606609e+00   2.4277752e-04
 -2.6206617e+00   2.3286627e-04
  9.3023470e-03   1.2805611e-04
 -1.1756480e+00   3.9695104e-05
 -1.5177921e+00   1.9817040e-04
 -4.1409740e+00   2.7418346e-05
  3.2619512e+00   2.6315261e-04
  2.6987069e+00   2.1915686e-04
  8.3564311e-01   4.2870754e-04
 -7.1597344e-01   8.7707990e-04
 -3.8835795e+00   6.6131109e-04
 -2.1155095e+00   4.1505534e-04
  2.0415685e+00   4.1900628e-04
  1.3686763e+00   6.4371096e-04
  1.2410206e+00   2.0468079e-04
  2.1309609e+00   1.1816705e-04
 -1.0213092e-03   3.4304580e-04
 -8.8387918e-01   1.2680003e-04
 -1.2803568e+00   2.0468239e-04
  3.8370545e+00   1.0722817e-04
  1.1450595e+00   1.8620666e-04
  2.6489863e-01   5.4612191e-04
 -7.1470537e-03   7.0345699e-04
 -1.1616753e+00   4.5534730e-04
  5.9180671e-01   3.5150378e-04
  6.6411400e-01   6.6089953e-05
  5.5652583e-01   5.6074327e-04
  1.3405988e+00   1.5822559e-04
 -1.1260213e-02   2.6198843e-04
  2.1397945e-01   2.7484214e-04
  9.2806298e-01   5.4126885e-04
 -4.3446269e+00   2.1611097e-04
  6.9147140e-01   7.3713854e-05
  2.3237467e+00   9.4967756e-05
  7.2183722e-01   4.8183181e-04
  2.4998845e-01   1.4420776e-04
  1.0491013e-01   3.3127901e-04
  9.9655025e-02   1.0999222e-04
 -1.7915982e+00   9.9665551e-05
 -1.7820289e+00   3.6220238e-04
 -4.2395463e+00   3.9885981e-05
  1.1282220e+00   2.4642423e-04
 -2.2443208e-01   1.5418623e-04
 -1.0841695e+00   1.9318404e-03
 -1.4211271e+00   5.9458055e-04
  3.5421133e+00   1.4097553e-03
  4.0747747e+00   2.8881189e-04
 -2.0712342e+00   1.6638673e-03
  2.4528275e-01   2.8699913e-04
 -1.1188195e-01   6.0534745e-04
 -2.3074253e+00   1.5239763e-03
 -4.3701846e-03   5.7717807e-05
 -2.1085114e+00   3.9318780e-04
  1.7769973e-01   3.2440192e-04
 -1.6605418e+00   6.4827292e-04
  8.1785016e-02   6.6021236e-04
 -2.7125623e-04   5.3146121e-04
  8.1822419e-01   4.1204583e-04
 -1.0135643e-01   1.3797773e-03
  2.5359898e+00   7.1484956e-04
  4.1892810e+00   6.6051063e-05
  1.6629398e+00   8.6450687e-04
 -4.6888632e-03   4.2812261e-04
  4.4449133e-01   7.0024416e-04
  2.0999442e-01   1.4035949e-03
  4.2096628e-03   2.6085976e-04
  1.5496798e+00   2.8919518e-05
 -1.7212666e+00   7.7580502e-05
 -7.7667129e-01   4.4455312e-04
  2.2818003e-02   4.7257286e-04
 -3.3493793e+00   7.9391641e-04
 -1.1628276e+00   2.4982076e-04
  5.2847993e-01   2.6726001e-04
 -2.7850667e-01   5.4701144e-05
  1.1569921e+00   6.1616265e-05
 -2.1506972e+00   3.8583450e-05
 -1.3282912e+00   1.6394295e-04
 -3.6644250e-01   1.9475624e-04
  5.3679389e-01   6.5528572e-04
 -2.9926546e+00   5.3281587e-04
 -2.2324085e+00   2.4847049e-04
  1.5296487e+00   6.5398711e-04
 -2.4867227e+00   2.4613325e-04
  1.4053389e+00   4.0800561e-04
  3.1697908e-01   2.6646352e-04
 -3.8514977e+00   7.2576990e-04
  3.0610564e+00   4.0584384e-04
 -4.9158734e-01   3.3456698e-04
 -4.2444291e+00   4.2206416e-04
  3.2549047e+00   2.1392266e-04
 -7.9111123e-01   4.4135295e-04
  1.3253762e-02   2.5701005e-04
 -1.7337394e-01   5.7081127e-04
 -5.4470938e-01   8.0936193e-04
  2.8401884e-01   3.8401005e-04
  9.9247903e-01   5.4622793e-05
  3.8011732e+00   3.0401477e-04
  3.5700653e-02   3.0381934e-04
 -3.4993546e+00   8.5402915e-04
 -2.7946022e+00   1.0701187e-04
  1.7792182e-01   3.2317286e-04
 -1.2030166e+00   5.9036054e-05
  3.3398479e-02   9.7438693e-05
  1.3306307e+00   1.5831082e-04
  9.5085002e-02   1.3770950e-04
 -1.9116708e+00   3.9778071e-04
  1.6561338e+00   1.0533009e-04
 -1.3042879e+00   1.6947738e-04
 -1.9307098e-01   9.1184338e-05
  2.3402640e-01   8.8322136e-05
 -1.0328016e+00   1.7978376e-04
  1.5474492e+00   7.5866102e-04
 -7.2965860e-01   1.9546015e-04
 -1.2714346e-03   3.2795864e-04
 -1.2883862e+00   4.6486768e-04
  7.7230322e-01   1.6462548e-04
  4.8222676e-01   7.1397272e-04
 -1.0031844e+00   1.2411793e-04
  2.0929897e+00   5.7404314e-04
 -4.1492003e-01   6.1646616e-04
  2.5636756e-01   1.7182650e-03
  1.8068746e+00   8.4698084e-04
  3.1000197e-01   1.7826092e-04
 -6.1059665e-02   3.7757939e-04
  1.3614962e+00   2.1978062e-04
  3.8874529e-02   9.5288735e-04
 -5.7328522e-01   2.6061351e-04
  6.2763085e+00   1.0283075e-03
 -1.8594654e+00   7.5335131e-04
  1.8142377e+00   2.2896359e-04
  4.1392145e+00   2.3238307e-04
  7.5653285e-01   1.5301282e-04
 -1.2579867e+00   4.0903938e-04
 -9.8361811e-03   6.0913508e-04
  1.5218768e+00   1.1355617e-04
  3.2546535e-01   1.3021943e-04
 -1.6547397e+00   2.0412621e-04
  1.6681777e+00   7.8208461e-05
  2.0195251e+00   3.0460369e-04
  2.1901509e-01   5.0455221e-04
  7.0957768e-01   2.3008083e-04
 -5.9988385e-01   8.8187058e-05
  1.0502809e+00   1.1873477e-04
  3.6369316e-02   9.3589952e-05
 -2.3051648e-01   4.9170014e-04
 -1.0524291e+00   1.2259230e-04
 -3.1344140e-01   1.8128278e-04
  7.5195089e-02   2.2877612e-04
  8.6743459e-03   1.3365485e-03
  1.2420172e-01   1.3802374e-04
 -2.5678125e-01   2.6745902e-04
  1.4305100e-01   3.9683931e-04
  9.1537642e-01   2.3020925e-04
  4.8211706e-01   1.0243330e-04
  8.4092289e-01   1.3274020e-04
  6.1000409e-03   7.3659158e-04
  7.1625090e-01   1.5235110e-04
  6.7831463e-01   4.2100111e-04
  5.0549805e-01   7.7283481e-04
  2.4611180e+00   4.7604548e-04
 -3.4510973e-01   2.8832114e-04
  5.2291803e-02   6.4973120e-04
 -7.7666980e-01   9.9522760e-04
  2.5438988e-01   3.0250434e-04
 -2.5917184e-01   5.2045096e-05
 -7.0333481e-01   4.1477371e-04
  2.9830143e+00   9.7053696e-04
 -2.9810073e-02   1.4973053e-04
 -1.1354276e-02   2.7210562e-04
 -2.4685906e-03   2.4581622e-04
 -7.5570062e-02   2.4302310e-04
 -1.1137814e-02   4.7455201e-04
 -3.5129263e+00   4.5901039e-04
 -2.2327249e+00   2.6566375e-04
 -1.1187843e+00   3.7187603e-04
 -5.5558313e-02   3.9691498e-04
 -8.8260806e-01   8.2048333e-05
  1.0758015e+00   8.8486391e-05
 -2.4377468e-01   4.3836022e-05
  6.4887184e-01   1.6602965e-04
 -1.0644590e+00   4.9179973e-05
 -2.7189803e-01   3.2104726e-05
  6.0774541e-01   5.1206487e-05
  1.1858863e+00   1.6892525e-04
 -1.9130082e-01   2.1965037e-05
 -2.1559489e+00   4.7253274e-05
 -1.4983300e+00   7.5668111e-05
 -1.2566911e+00   1.0908709e-04
 -9.6768397e-01   1.1630224e-04
 -1.2763792e-01   4.7841015e-05
 -1.6555490e-01   1.2469114e-04
 -3.3466336e-01   7.2249801e-05
  2.1860555e-01   1.2059251e-04
 -1.1329974e+00   9.8010772e-05
  8.2633458e-03   1.0370557e-04
  5.0754583e-01   1.5462750e-04
  4.5208451e-01   5.0731927e-05
 -9.3539441e-01   5.4441090e-05
  5.3830481e-01   2.9232312e-04
 -2.8753969e-01   2.1493535e-05
  1.7387335e+00   3.4639150e-05
  1.1097497e+00   1.1749340e-04
 -2.0400215e-04   2.7150190e-05
  6.5457046e-01   5.2518102e-05
 -1.5161829e+00   9.7596625e-05
 -3.0383766e-01   3.7417711e-05
  5.6720597e-01   1.1112611e-04
 -4.4408900e-01   3.5356552e-05
 -5.7428457e-02   1.0315222e-04
  7.8929502e-01   3.5651305e-05
  1.5783218e+00   1.3475124e-05
 -3.2843847e+00   2.1155158e-04
 -1.3258910e+00   1.7773589e-05
 -4.5958090e-01   1.9459716e-04
  1.5615356e+00   2.2468669e-04
  4.0029201e-01   1.4389912e-04
  5.0495887e-01   1.2487760e-04
 -2.0774944e-01   1.4256198e-04
 -1.5994327e+00   1.1677530e-03
 -1.8394840e+00   1.7243177e-04
 -1.3379858e+00   2.5569386e-04
  1.1762213e+00   1.0414416e-04
  3.0758851e+00   3.8382839e-04
  8.6593467e-01   5.2074512e-04
 -9.4242042e-01   4.5590682e-04
  1.2440776e+00   9.5342705e-04
 -4.2666350e-03   2.5372044e-04
  1.8209655e+00   2.8178524e-04
 -1.8170443e+00   2.0820546e-04
  1.2249067e+00   1.5887916e-04
  5.3203672e-02   2.3814078e-04
  5.9381087e-04   5.0856819e-04
  1.2597066e+00   3.0381797e-04
 -5.2316290e-01   1.9718678e-04
  1.0230516e+00   2.2715819e-04
 -1.1472323e-01   3.6536181e-05
 -1.2354870e+00   2.8923896e-04
  1.7237879e+00   4.9542123e-04
  1.7137040e+00   5.4771570e-04
  3.8451278e-01   7.0073770e-04
  1.7876530e+00   2.3922740e-04
  2.1121807e+00   2.7966491e-04
 -5.3360778e-01   8.4560830e-05
  1.6260921e+00   3.8605230e-04
  2.9808612e+00   1.7517718e-04
  3.9530298e-01   3.5944328e-04
  5.6667113e-01   6.4019361e-05
  5.8994073e-01   3.3947881e-04
 -1.8779602e+00   1.7258072e-04
 -3.5239878e+00   1.8624272e-04
  3.0451357e+00   1.9147265e-04
  2.4426341e-01   3.0714422e-04
 -2.1423864e+00   7.8264660e-05
 -2.8705833e+00   5.7610852e-04
 -1.2144526e+00   1.4069889e-03
  4.8195174e-01   3.7541275e-04
  1.1122155e+00   3.7813449e-04
 -2.7722428e+00   2.0393815e-04
 -9.5302805e-02   5.1686767e-04
 -4.4666207e-01   4.1404358e-04
 -8.7431592e-01   1.2850238e-03
  1.3771187e-01   4.3876391e-04
 -3.9987206e-01   1.0396014e-04
  3.3336478e-01   5.0652237e-04
  4.7893065e-01   2.3450160e-04
 -9.3312651e-02   2.1205930e-04
 -2.3225765e+00   4.8804609e-04
 -6.5084964e-01   4.8895366e-04
 -3.1220713e-01   4.4367262e-04
 -1.3165773e+00   1.4297753e-04
 -5.8033049e-01   9.9761884e-05
 -3.9726520e-01   1.4448987e-04
  1.6616527e+00   1.5427556e-04
  2.3350958e-03   3.7284687e-04
 -7.7587956e-01   1.3112999e-04
 -2.1054151e+00   2.6329976e-04
  1.2545564e+00   1.0690770e-04
  1.5271945e+00   3.9303293e-05
 -2.0670259e+00   6.1239502e-05
  2.0921628e+00   4.5921159e-04
  1.8730805e+00   2.3664744e-04
  3.3769450e-01   2.2117670e-04
  1.6742712e+00   4.6893150e-05
  2.1970545e-01   4.6957433e-05
 -2.0924666e+00   2.2771234e-04
 -9.3669534e-01   1.1098591e-04
  8.6582011e-01   1.8252066e-04
  1.9564776e+00   1.2972282e-04
 -1.1214674e+00   1.0519902e-03
  1.2761765e+00   1.2404157e-04
  1.9023039e+00   4.8369516e-04
 -3.1082091e+00   1.3982014e-04
  3.7393351e+00   4.7691184e-04
  2.2996631e-01   1.8071615e-04
 -7.0397681e-01   5.5216718e-04
 -2.1121275e+00   2.6037991e-03
  2.1508541e+00   4.1255829e-04
 -3.1841733e-02   1.0004275e-03
 -6.1804652e+00   6.9163583e-04
 -3.0602533e-01   1.1914406e-03
 -7.6654488e-01   7.3947263e-04
 -2.5997071e-03   4.7245048e-04
 -1.8468262e-04   3.3576490e-04
  1.1798135e+00   4.0699833e-04
 -1.8130145e+00   3.8208530e-04
 -2.8022215e+00   1.1458964e-04
  1.5141652e+00   5.1634613e-04
 -6.3409543e-01   8.7032956e-04
  1.8753916e-04   3.4050259e-04
  1.3235540e+00   1.0240983e-03
 -9.1084659e-01   3.4210950e-04
 -1.5102072e+00   5.3686701e-04
 -3.0461711e-01   2.9773574e-04
  6.1033517e-01   2.6829931e-04
  2.7372353e+00   2.5233254e-04
 -9.2558265e-01   5.0344475e-04
 -1.7838349e+00   1.7129550e-04
  2.0327182e+00   3.1044480e-04
 -4.3391733e+00   1.0435651e-04
 -7.1387069e-04   2.5012167e-04
 -2.2686961e+00   1.4756690e-04
  1.8736112e+00   6.5153057e-04
  1.2562225e+00   7.5241849e-05
 -7.9168010e-01   4.8905250e-04
 -2.1000157e-01   9.3741500e-04
  2.9610090e+00   1.3463829e-04
 -3.2225037e-01   2.0395665e-04
 -3.9764610e-01   3.1282718e-04
  1.7551610e-01   3.2349903e-04
  3.3380285e-01   5.8675210e-05
 -1.7200899e+00   5.5852032e-04
  2.0014007e+00   3.3569362e-04
 -2.5120790e+00   3.8859341e-04
  1.0138644e-01   1.2027117e-04
 -1.7990373e+00   6.1718386e-04
 -2.2072904e-01   6.4240361e-05
 -2.6951027e+00   6.1584922e-04
 -3.7916927e+00   2.4136894e-04
  1.2811996e-01   4.1940185e-04
  1.4470612e+00   2.2925581e-04
 -4.9609470e-01   2.0836889e-05
 -1.1647829e-03   1.2490607e-04
 -1.9549128e+00   1.9809112e-04
  3.2533261e-01   5.3128105e-04
 -3.0287673e+00   4.0947477e-04
 -1.1813837e+00   4.1404591e-04
 -1.5765020e+00   2.3994094e-04
  3.4640974e-01   7.6648503e-05
  2.4015045e+00   1.7977493e-04
 -1.3762113e-01   1.7348453e-04
  2.8009536e+00   2.7558842e-04
  1.8783735e+00   2.2261211e-04
 -6.5526932e-01   6.7969819e-04
  1.1411148e+00   4.8487604e-04
 -1.5802154e-02   4.9103866e-04
 -1.6118891e+00   1.7101438e-04
  2.9851372e+00   6.9591944e-04
 -2.2891617e+00   2.2505641e-04
 -8.0833569e-02   6.0206553e-04
  1.9845215e-03   2.0977964e-04
  2.1479735e+00   6.4709364e-04
 -7.6379383e-01   7.3658733e-04
 -2.5185416e-03   2.0995928e-04
 -1.8308800e+00   1.2782533e-03
  1.2334280e-01   4.7258020e-04
  3.2228723e-01   5.2182720e-04
  7.9722933e-02   2.5220448e-04
  7.6815170e-01   2.0346056e-04
  2.3664176e-01   4.0160184e-04
 -6.5675944e-02   3.2599183e-04
 -1.0934348e-01   6.0203421e-04
 -9.6932381e-02   5.2824552e-04
 -4.1965944e-01   1.2397643e-03
  7.1456188e-01   5.9416244e-04
  7.0370927e-02   3.3956228e-04
  4.5440087e+00   1.6083737e-04
 -5.2788228e-01   3.7214509e-04
  6.1973041e-01   1.6093504e-04
 -3.0765614e-01   1.2327038e-03
 -1.9121622e+00   6.3886418e-04
 -2.4742670e-01   3.8330341e-04
  1.6931498e+00   2.6538465e-04
 -5.4102504e-01   1.4468349e-04
 -1.4173412e+00   5.2581850e-04
 -2.7188531e-01   1.7454926e-04
 -1.1720579e+00   9.0793433e-04
 -2.6601157e-04   7.4838783e-04
 -1.0648307e-03   1.0610056e-03
 -4.3185946e-04   3.1562187e-04
 -2.5167873e-03   7.7713130e-04
  7.9588685e-04   4.9319991e-04
 -4.3642620e-04   2.6883974e-04
  7.0838974e-04   4.8363509e-04
  2.2276543e-01   2.3557406e-03
 -3.7666006e-04   2.3342593e-04
  1.5889602e-03   1.2981809e-04
  2.8726377e-03   4.1813625e-04
  3.4158721e-03   4.0336172e-04
  1.1227309e-03   6.6135236e-04
  4.9319933e-04   6.7796657e-04
  7.3854392e-04   5.3992885e-04
 -1.1749706e-03   3.8045249e-04
  1.7133295e-04   8.9795794e-04
 -4.9832882e-04   6.6865009e-04
  2.8603376e-04   6.1988790e-04
 -2.1813267e-03   1.4470017e-04
 -2.8745414e-04   2.7904450e-04
 -2.4753658e-04   3.3116431e-04
  5.7580983e-03   8.7413471e-04
  5.4070028e-04   1.4640802e-03
 -7.1193709e-04   4.7115632e-04
  9.4227208e-04   8.2554715e-04
 -2.7566752e-04   8.4673852e-04
 -3.2649178e-04   4.6619336e-04
  5.9036065e-05   7.9028937e-04
 -2.5973315e-03   3.4973444e-04
 -4.0214436e-04   2.6195019e-04
  1.0787307e-03   6.3974236e-04
 -1.2222816e-04   3.4209233e-04
  3.7729158e-04   4.3608103e-04
 -7.4030162e-04   6.0804118e-04
 -1.1498085e-01   1.3748063e-04
  5.0310290e-01   1.4617345e-04
 -6.8440574e-01   1.0977391e-04
 -8.0076694e-02   3.0577477e-04
  6.7424655e-01   3.1895383e-04
  2.3027089e+00   2.7417368e-04
 -1.4242251e+00   2.3752800e-04
 -1.0591271e+00   6.6555286e-04
  2.1532419e+00   2.1302012e-04
 -6.4449632e-01   1.0280617e-03
 -3.1872455e-02   5.1903288e-04
 -9.8872441e-01   6.0361857e-04
 -5.9530485e-01   3.2995432e-04
 -1.7318214e-01   4.8255181e-04
  2.4580868e-01   4.5398122e-04
  2.1245030e-01   6.1415031e-04
 -2.8118334e-04   1.2896540e-04
  8.5372865e-02   1.0844390e-03
 -1.3608105e-01   7.7166152e-04
 -3.8766900e-01   5.4029014e-04
  8.0536781e-03   6.7343604e-04
 -2.1013953e-01   8.7656511e-04
 -7.4214131e-02   5.2983093e-04
 -1.0240235e+00   1.7332585e-04
  2.3387338e-01   1.5261896e-04
  9.7300147e-04   2.1394411e-04
 -2.0195285e-02   3.3341828e-04
 -4.0255357e-02   4.4193884e-04
  7.4040705e-01   4.7093991e-04
 -1.7255976e+00   3.4526127e-04
 -2.6851672e-01   5.9325091e-04
 -7.6024932e-01   1.4100569e-04
  1.7849871e+00   6.2366307e-04
 -2.2505398e-01   2.9733439e-04
  1.8735933e-01   1.3032820e-04
 -7.7858049e-01   1.1506508e-04
  2.5017128e+00   3.7484893e-05
 -2.4836731e+00   1.2176870e-04
  1.6246374e-01   1.9597518e-04
  2.2921264e+00   7.2315073e-05
  1.6223927e-01   1.2322077e-04
 -4.4890785e-01   4.3141252e-05
  9.1651654e-01   4.1828043e-04
 -3.8334422e+00   1.5042498e-04
 -2.0828371e+00   2.7702315e-05
  1.4167393e+00   1.1478538e-04
  5.2302319e-01   5.9116694e-05
  5.3442454e-01   3.8493273e-04
 -1.2951974e+00   3.9943986e-04
 -4.3619866e+00   1.9176595e-03
  2.2855091e+00   6.5421255e-04
  2.2442760e+00   2.5693557e-04
  4.2664914e+00   3.6349855e-04
 -4.1297898e-01   2.0942083e-04
  6.7636710e-01   2.4003790e-04
  2.0651624e+00   8.2475692e-04
  1.7787008e+00   4.6259389e-04
 -1.8979229e-01   1.5111183e-04
 -2.4136803e+00   1.0237926e-04
  4.2223239e-01   1.9342358e-04
 -2.4556793e-02   1.1294555e-04
  1.5774133e-02   2.8221670e-04
  5.5468804e-01   8.7525276e-04
  2.8105657e+00   1.9163886e-04
  5.4063469e-01   8.1007158e-05
 -9.3798196e-01   1.8136387e-04
 -1.0503435e-02   4.9581460e-05
 -6.8732131e-01   1.7455434e-04
 -2.0200343e+00   2.0404946e-04
  1.3161265e+00   1.5635722e-04
 -3.4040186e-01   3.4086121e-04
 -2.6312115e+00   1.9459936e-04
  1.2270402e+00   1.3406159e-04
  1.0905156e+00   2.6990083e-04
 -5.6140953e-01   8.2709907e-05
  2.2550540e+00   5.9566251e-04
 -3.9249292e-01   6.2524865e-05
  8.4575391e-01   6.8077474e-04
 -2.8041720e+00   3.3605495e-04
 -1.5791607e+00   7.3433714e-04
  1.8722324e+00   6.8801304e-04
 -2.4235761e+00   8.8177569e-04
 -5.4796988e-01   6.8882690e-04
 -1.9619840e+00   4.2100865e-04
 -9.0077996e-02   2.9059136e-04
  2.1907735e+00   1.5263755e-03
 -3.3861193e-01   3.5972413e-04
 -6.4380743e-02   4.5549701e-04
  2.0019784e+00   2.9366504e-04
 -1.0329496e-01   7.7959360e-04
  3.1742114e-01   5.5906811e-04
  2.3013358e+00   1.2616360e-03
 -9.1319275e-01   3.5577262e-04
  1.3500605e+00   5.8406353e-04
 -6.1373234e-01   8.8705019e-05
  5.6375569e-01   1.5833600e-04
  3.9929217e-01   1.5868268e-04
 -1.6485400e+00   3.5520576e-04
  3.4206560e+00   4.3158792e-04
  5.1964080e-01   4.5348550e-04
  5.4587372e-02   2.4797159e-04
  2.6906302e+00   2.0573642e-04
  2.1160955e+00   7.4372586e-04
 -2.5007457e-01   8.9467692e-05
 -2.1590512e+00   3.7043847e-04
  3.2077036e+00   1.1313893e-03
  3.0167150e+00   1.7902219e-04
  8.4044766e-01   4.2734653e-04
  2.8397717e+00   2.5730272e-04
 -6.2923241e-01   3.7005867e-04
  1.1091472e+00   5.2061933e-04
 -1.8305845e+00   4.2424352e-05
 -4.7928374e-04   9.0173149e-04
  5.5425148e-04   6.9420406e-04
 -2.8286055e-03   6.1591348e-04
 -8.1034511e-01   1.8594146e-03
 -1.3150069e-01   9.4340334e-04
  7.1950354e-02   4.4399238e-04
 -3.6012873e-02   4.8576234e-04
 -9.7275302e-02   9.4867969e-04
 -4.1827776e-02   9.6022495e-04
 -2.0782204e+00   8.4932617e-05
 -5.8661842e-01   5.3431501e-04
  5.7274222e-01   3.8729262e-04
 -9.5835954e-01   4.3283965e-04
 -2.5757003e+00   3.5818803e-04
 -2.1824288e+00   1.5479772e-03
 -4.8775622e-01   2.2125738e-03
 -1.0729769e+00   7.2074548e-04
 -4.2614338e-01   6.6128938e-05
  2.2645458e-03   2.1532051e-04
 -3.1206439e+00   8.1380899e-04
 -9.0306037e-04   2.3778033e-04
  1.8111971e-01   5.4653140e-04
 -7.7864522e-01   1.6750185e-03
  1.6038729e+00   7.0890062e-04
  2.0371432e+00   2.8781635e-05
  7.0131058e-01   6.4370863e-04
 -5.0287873e-01   2.0302394e-04
  2.0401442e-01   3.6321094e-04
  2.0321004e+00   1.0598614e-04
 -1.2699821e+00   6.1586281e-05
  3.3614507e-01   2.4387831e-04
 -8.5896943e-03   1.6613446e-04
  7.7635157e-03   1.2636972e-04
  8.5560113e-01   5.5100454e-04
  2.4118080e+00   1.7569721e-04
 -8.6224172e-03   9.9406426e-04
 -1.0017414e+00   4.3584302e-04
  1.5552640e+00   1.0115968e-03
  3.2741003e+00   8.2262867e-04
 -8.5731745e-03   4.4412949e-04
  4.4111428e+00   1.3514163e-03
 -1.1940094e+00   1.3164339e-03
  2.8021472e+00   2.3074944e-03
  1.2849835e+00   4.1648219e-04
  8.4737251e-03   8.7609823e-04
 -2.6780169e+00   1.0993424e-03
  1.3079746e+00   4.2990557e-04
 -1.1620599e+00   5.1511498e-04
 -5.8597171e-01   8.9865684e-04
  8.4585899e-01   1.1831818e-03
 -9.4860524e-01   5.4295099e-04
  2.3015140e-01   3.4895513e-04
  5.1401138e-01   3.7482081e-04
 -1.3650539e+00   1.1654792e-03
 -1.3003010e+00   9.4206020e-04
  1.2014750e-01   3.5716235e-03
 -3.3746091e-01   9.6040790e-04
  7.0681572e-02   4.4209929e-04
  5.1596159e-01   3.2808530e-04
  1.4016794e+00   2.0392827e-04
 -4.6564617e+00   7.3817291e-04
  1.7581573e+00   4.3580990e-04
 -3.1149247e+00   1.0229335e-03
 -4.7103591e+00   1.9087222e-04
 -1.0013911e-03   1.3256828e-04
  3.4379795e+00   2.3770212e-04
  4.5247707e-01   8.4558182e-05
  2.4415359e+00   1.1702008e-04
  6.2629324e-01   2.2071116e-03
  1.7468435e+00   6.3649623e-04
 -2.8126974e+00   9.6304523e-04
  1.4329074e-01   2.0513514e-03
  6.4672542e-01   1.9318446e-03
  3.8663421e+00   2.2477757e-03
  1.7651077e-03   1.1215333e-03
  3.6225069e+00   1.2344826e-03
  1.2529925e-01   1.3112371e-03
 -1.6871712e-04   2.6952208e-04
  1.4560610e+00   2.0785220e-03
  1.7834322e+00   8.3916349e-04
  2.0896695e+00   6.2789017e-04
 -2.7555027e+00   2.7862610e-04
  1.3640774e+00   2.4129587e-04
 -1.8260021e+00   5.0602254e-04
 -1.9762831e+00   1.6073887e-03
  4.2932928e-03   3.2866295e-04
  5.4176193e-01   9.5404766e-04
  3.6915120e-02   6.7752742e-05
 -1.9014146e+00   7.7490049e-04
 -5.1389605e-02   9.2974433e-04
 -1.9277807e-02   1.3172083e-03
 -2.3730729e+00   3.1364002e-04
  4.6820939e-01   4.6513160e-04
  1.4620740e+00   7.7545195e-04
 -1.3579925e+00   3.2378070e-04
 -7.7274605e-03   1.3322136e-04
  5.1654637e-01   8.7648560e-04
 -7.8052509e-01   9.9480106e-04
 -1.4797376e+00   2.3879716e-04
  2.6212811e+00   3.5999494e-04
 -1.1130580e+00   9.8929151e-05
 -1.0622349e+00   2.2864145e-04
  4.6401823e-01   7.6443452e-05
 -1.5436620e+00   6.8806205e-04
 -8.0185205e-01   3.3699241e-04
  3.4784856e-01   7.1207789e-04
  8.4184128e-01   6.6132523e-04
 -5.0292516e-01   2.0807970e-04
  3.4753911e+00   1.1424225e-04
 -2.5841019e+00   1.4326134e-04
 -1.4850520e-01   6.6749135e-04
  1.8996824e+00   4.3476230e-04
  2.7182629e+00   7.0692564e-04
  5.1703315e-02   8.2945212e-04
  1.7612739e-01   1.3817672e-04
 -6.1070113e-03   2.5124152e-04
  1.3287218e+00   3.8161420e-04
  5.3964198e-01   4.5908932e-04
 -6.7073429e-01   8.1104442e-04
  3.6043546e-01   2.7252556e-04
  4.6105952e+00   9.6000929e-04
 -1.4370402e+00   1.9083978e-04
  2.7598586e+00   1.1501097e-04
 -6.5749925e-01   3.8459322e-05
 -5.1828796e-01   3.2418215e-04
 -5.6981707e-01   3.1096995e-04
 -3.3179730e-02   1.2447656e-04
  5.0572457e+00   2.9523208e-04
 -1.7227554e+00   4.0677600e-04
  1.0513598e+00   1.9944416e-04
 -2.8164840e-01   3.2392342e-04
 -1.1017389e+00   5.1572886e-05
  4.2286116e-01   2.6379272e-04
  5.6865239e-01   3.7502854e-05
 -1.9864495e-01   6.0992272e-05
 -1.8598564e+00   1.9749449e-04
  8.5735118e-01   1.4494354e-04
  3.6037657e+00   1.8840079e-04
  2.0596116e+00   1.2012989e-04
  8.9063048e-01   1.2951117e-05
  6.0182691e-01   1.4324795e-03
  8.6728227e-01   1.5711499e-04
 -6.6867620e-01   8.1335963e-04
  9.5148963e-01   1.5768656e-04
  1.0549851e-03   3.4990493e-04
  1.8726312e+00   1.4907331e-04
  2.6498423e+00   4.5605801e-04
 -8.6146104e-04   2.8231650e-04
  9.5753896e-01   3.2215568e-04
 -1.1618705e+00   3.5716608e-04
 -2.8961396e+00   1.3728773e-04
  4.5708542e+00   3.8011491e-04
  1.4459275e+00   6.2990317e-04
 -4.8072758e+00   1.1036837e-03
  4.0473327e-02   1.2169779e-04
 -2.5415957e+00   6.7001395e-04
  1.1044096e+00   4.1276307e-04
  9.8446018e-01   1.7582886e-04
  7.8757244e-01   3.3163701e-04
 -1.6470037e+00   5.9287070e-04
  3.5203111e+00   7.1434223e-04
 -1.6390811e+00   6.7753380e-04
  3.3961716e-01   3.0992518e-04
  1.3788301e-02   7.2575742e-05
  1.4179133e+00   2.0847369e-04
 -1.1867578e+00   3.2858417e-04
  9.4061017e-01   7.4838630e-05
  9.0242249e-01   2.2004629e-04
  1.4187662e-02   6.4995635e-05
  5.9020627e-01   6.9047870e-05
  5.6819069e-01   2.1293151e-04
 -4.4258237e-02   8.8715082e-05
  6.7636263e-01   1.7699566e-04
  9.3126816e-01   2.2600574e-04
 -1.0505513e+00   7.5667973e-05
  5.5757689e-01   1.0998921e-03
  1.3702836e+00   1.6064248e-04
 -1.5243454e+00   4.3221598e-04
 -2.0887308e+00   2.9783283e-04
 -1.0986005e-01   3.8871489e-04
  8.0795377e-01   3.5153973e-04
 -2.1771470e-02   3.9260063e-04
 -1.9855300e+00   7.2187837e-04
 -3.6126757e+00   2.6505141e-04
 -6.1260921e-01   1.9987258e-04
  1.3120701e+00   5.7633914e-04
  6.1001039e+00   3.7875352e-04
  1.6507322e-01   3.4500752e-04
 -1.5027726e+00   4.1183355e-04
 -2.7209103e-02   1.2897662e-04
 -1.6372453e-02   1.3334909e-04
  1.7543399e-01   2.2735965e-04
 -3.8947535e-01   2.0590991e-04
 -2.6375518e+00   1.8816750e-04
  2.6307783e+00   1.7442147e-04
 -2.6198769e+00   4.6288158e-04
 -1.2562362e+00   2.9009886e-04
  2.5056171e+00   1.4898737e-04
 -1.6784999e-01   3.4598086e-04
  1.8020476e+00   2.6912749e-04
  6.9721621e-01   1.9373858e-04
 -1.2140217e+00   2.8366884e-04
  1.0834619e+00   1.4794382e-04
  2.5096350e+00   1.1434345e-04
 -5.5064523e-01   1.7430144e-04
 -6.1724442e-01   6.2164982e-05
 -1.6251274e+00   8.4134190e-05
 -6.8312246e-01   5.8923397e-05
 -6.9136798e-01   1.9543897e-04
 -9.7447968e-01   1.1017251e-04
  3.1815333e+00   1.2377751e-04
  1.2390097e+00   9.6195273e-04
 -1.8259237e+00   3.5415700e-04
  4.6754596e-01   3.2514660e-04
  7.4142832e-01   1.7498793e-04
 -3.1772025e+00   8.9593974e-05
  1.8705776e+00   1.9233570e-04
 -1.4817207e+00   4.3464854e-04
  1.3948858e+00   5.1176158e-04
 -1.8159962e+00   1.5870003e-04
 -5.1121998e+00   2.8588576e-04
  8.3074095e-03   2.1508383e-04
  5.2891690e-01   5.7883840e-04
  1.9351860e+00   5.7342806e-04
 -9.9462616e-01   1.4738616e-04
 -7.3282981e-01   5.2485702e-04
  9.3256986e-01   9.8980796e-05
 -1.9123514e+00   1.6059350e-04
  1.6817160e+00   5.5545086e-05
 -1.0613451e-01   4.3840348e-05
  2.8977323e-01   4.6347882e-04
 -1.1962566e+00   1.6107627e-04
 -8.4713501e-01   1.2803594e-04
  2.2620623e+00   6.0965649e-05
 -1.0118153e+00   4.7890167e-05
  1.1048627e+00   8.0838050e-05
  1.3247557e+00   1.5711717e-04
 -9.8245758e-01   1.8139910e-04
 -3.9701360e-01   5.4901897e-04
  1.8677671e-01   1.8636826e-04
  1.6494196e-02   2.2786330e-04
  4.7479865e-01   1.5554567e-04
 -1.9952334e+00   9.9306693e-05
  1.7965326e-01   3.8431186e-04
 -5.1514842e-02   1.4845212e-04
 -3.0660102e-01   3.0104665e-04
  1.3848155e+00   5.0773623e-04
 -5.0486666e-03   1.8807243e-04
 -1.5850616e+00   8.3986270e-05
  1.1130954e+00   2.7643674e-04
  2.4651313e+00   3.4673425e-04
 -1.4833813e+00   3.7704138e-04
  4.2825562e-01   5.6328194e-04
  6.4864141e-01   1.4982540e-04
 -2.3382125e+00   1.9258102e-04
  2.1299579e+00   3.1671883e-04
 -6.7362201e-01   9.6392461e-05
  3.6812093e+00   1.9051699e-04
 -3.2641208e-03   6.8211462e-04
  4.7141057e-01   1.6178978e-04
 -5.3479511e-01   3.1071316e-04
 -1.3648081e+00   2.3315834e-04
  1.6062622e+00   8.3251922e-05
  1.9754799e-01   2.3210779e-04
  4.8989430e-04   7.9755628e-05