250
Lattice="0.0 16.42598 16.42598 16.42598 0.0 16.42598 16.42598 16.42598 0.0" Properties=species:S:1:pos:R:3:force:R:3 energy=-949.2365 config_type=nep2xyz pbc="T T T"
Te       3.33714800       3.18030700       3.22673900       0.05246599       0.16503190      -0.06064720
Te       3.17995500       6.64671200       6.73976800       0.39348700      -0.08419316      -0.24862620
Te       3.19070800       9.85944100       9.76470900       0.18435860       0.08923086       0.31482530
Te       3.06542500      13.15916000      13.17476000       0.44774850       0.03792562       0.02953348
Te       3.30334600      16.42215000      16.52164000       0.38642880      -0.01882093      -0.26001770
Te       6.53901600       3.45757800       6.45112100      -0.10390760      -0.10515930       0.48152630
Te       6.61353500       6.52831800       9.80131700      -0.17221560       0.04509554       0.40564380
Te       6.63591900       9.72470100      13.10109000      -0.42846770       0.16115920      -0.04901432
Te       6.65384400      13.19074000      16.28538000      -0.22793500       0.02945184       0.09715697
Te       6.71069000      16.41767000      19.78072000      -0.09587134       0.11708780      -0.10464630
Te       9.82935200       2.97353100       9.70549800       0.29626490       0.37577770       0.33375740
Te       9.78524500       6.58005600      13.06137000       0.13722970      -0.16568460       0.01793303
Te       9.78394700       9.74151200      16.25140000       0.13130040      -0.03900273       0.43371360
Te       9.87186100      13.10245000      19.63862000       0.10514690      -0.05277050       0.47492150
Te       9.77010600      16.28445000      23.08987000       0.29884650       0.54137770      -0.49804350
Te      13.31882000       3.35808900      12.92067000      -0.43807210      -0.66679100       0.49950830
Te      13.30300000       6.65896300      16.36244000      -0.26811120      -0.23829710      -0.10348190
Te      13.30786000       9.87783100      19.51982000      -0.75118460       0.08138532       0.32824870
Te      13.30459000      13.10156000      22.79689000      -0.58528990       0.01557617       0.65563480
Te      13.05939000      16.35770000      26.31335000       0.13927770       0.01770110      -0.02866747
Te      16.61123000       3.20070400      16.41368000      -0.26913680       0.32081370      -0.03003448
Te      16.49289000       6.69681000      19.77779000       0.00001745      -0.31404520      -0.37063460
Te      16.45985000       9.68668000      22.95954000      -0.13025190       0.40201150       0.11733720
Te      16.54039000      13.09353000      26.35151000      -0.44518970       0.00801563      -0.17204320
Te      16.40914000      16.19408000      29.59910000       0.05057106       0.23386970       0.01955895
Te       6.65230000       6.61740400       3.48570600      -0.02800889      -0.04876580      -0.16021190
Te       6.59171100      10.10797000       6.73169700       0.03755962      -0.34743370      -0.70717120
Te       6.50258600      13.09059000       9.83984200       0.37064370      -0.24049840      -0.11351200
Te       6.64836900      16.43650000      13.15196000      -0.23842990      -0.04282212      -0.13025870
Te       6.65048800      19.81597000      16.54503000       0.18555610      -0.18597490      -0.38351160
Te       9.91401800       6.73167500       6.46088700      -0.24976770      -0.28958730       0.26627390
Te       9.94427800       9.67952900       9.81127500      -0.52877500       0.39776290      -0.13987510
Te       9.84445000      13.13112000      13.36658000      -0.51289200       0.10060480      -0.74614970
Te       9.98339000      16.35781000      16.56417000      -0.22871150       0.13769920      -0.39045320
Te       9.90960900      19.69103000      19.71232000      -0.29906980       0.02681406      -0.18447360
Te      13.03759000       6.69757200       9.68039100       0.23454190      -0.60256910       0.54752560
Te      13.01325000       9.82689800      12.95842000       0.33169390      -0.02172000       0.14389900
Te      12.94595000      13.04184000      16.37232000       0.33900020       0.10621160       0.35570970
Te      13.32926000      16.50250000      19.65922000      -0.57330190      -0.05165501       0.49692980
Te      12.98310000      19.69151000      22.97725000       0.22785310       0.30483590      -0.06402642
Te      16.27129000       6.33557900      12.88070000       0.35362720       0.22380780       0.45707070
Te      16.36887000       9.73076200      16.34871000       0.11330610       0.06851083      -0.10148840
Te      16.57440000      13.15858000      19.76488000      -0.14329840       0.43576980       0.13650540
Te      16.49756000      16.24668000      23.17181000      -0.64367850       0.28193430      -0.29357700
Te      16.38785000      19.68909000      26.18870000       0.12109650       0.10333750       0.09343860
Te      19.75427000       6.42829100      16.47195000       0.05095805       0.29919410      -0.07754665
Te      19.80128000       9.84950400      19.67915000      -0.09583755       0.03050850       0.01988705
Te      19.67198000      13.39534000      22.93490000       0.19268710      -0.45484120       0.29827320
Te      19.57279000      16.40168000      26.29325000       0.69277120      -0.10119230       0.45714260
Te      19.80115000      19.76161000      29.43006000      -0.13377810      -0.37314360       0.01537343
Te       9.73862200       9.76047200       3.26885400       0.40891020       0.46263240      -0.07508328
Te       9.82482500      13.29147000       6.52560900       0.17644620      -0.02296639       0.26591380
Te       9.83292400      16.39046000       9.69290700      -0.01408327      -0.04265381       0.53237920
Te       9.97409800      19.77337000      13.04207000      -0.44757480      -0.02792984      -0.01442986
Te       9.83817200      23.22236000      16.35062000       0.02868994      -0.39096780       0.03142613
Te      13.15111000       9.85279200       6.51744500       0.23090730       0.16810960      -0.16627080
Te      13.18783000      13.15069000      10.02068000      -0.43544460       0.06947687      -0.34733020
Te      13.07437000      16.47681000      13.34862000       0.22694520      -0.12641880      -0.28098880
Te      13.11038000      19.72072000      16.47194000      -0.34083170      -0.04629555      -0.02291303
Te      13.21841000      23.07716000      19.69207000       0.06261359      -0.03335573       0.02004440
Te      16.32440000       9.82962100       9.69259400       0.14658720      -0.13833140      -0.18482340
Te      16.36765000      13.16985000      13.26025000       0.18966800      -0.23910420      -0.26638190
Te      16.41174000      16.24953000      16.38606000      -0.07572469       0.16853800       0.17567960
Te      16.37672000      19.60213000      19.59061000      -0.02076000       0.33232890       0.32521160
Te      16.40705000      22.78718000      22.96074000       0.13321290       0.22081440      -0.29995070
Te      19.59106000       9.82354500      13.07015000       0.31947350      -0.01210494      -0.05065581
Te      19.42580000      13.19361000      16.64624000       0.48062870      -0.31796770      -0.50962100
Te      19.63474000      16.49234000      19.78030000       0.31567280      -0.06463956      -0.10021910
Te      19.58800000      19.69265000      22.82906000       0.23618020       0.34932140       0.50631270
Te      19.70811000      22.86858000      26.21894000      -0.08852284       0.07105034      -0.06022892
Te      22.91103000       9.97289700      16.44937000       0.12121910      -0.18086220       0.07320957
Te      23.24687000      13.28231000      19.62706000      -0.44572470      -0.18250020       0.48891510
Te      22.98753000      16.69297000      23.00076000       0.03650126      -0.51492520       0.08351754
Te      23.08743000      19.64246000      26.27527000      -0.25543630      -0.03325376       0.02900226
Te      22.93575000      23.11585000      29.65260000      -0.11128410      -0.27872780      -0.13421710
Te      13.19915000      13.20431000       3.38069000       0.14883510      -0.43516500      -0.13012830
Te      13.15217000      16.62527000       6.69736900       0.29843120      -0.44609850      -0.14987990
Te      13.04637000      19.67002000       9.98437700       0.17193280      -0.48605660      -0.11070080
Te      13.17086000      22.96738000      13.26115000      -0.17587940       0.22784330      -0.40166230
Te      13.11708000      26.37545000      16.23748000       0.06673353      -0.11111660       0.18558080
Te      16.40181000      12.89052000       6.55364600       0.07792257       0.35417810       0.01627001
Te      16.50690000      16.46550000       9.84902800      -0.20074220      -0.35695010       0.11096990
Te      16.35366000      19.73145000      13.15603000       0.06911296      -0.17854480      -0.15050440
Te      16.43900000      22.78432000      16.44028000      -0.10122390       0.40955710       0.06133620
Te      16.48163000      26.23061000      19.53156000      -0.34940880      -0.27558670       0.29646810
Te      19.59096000      13.01525000       9.95817300       0.03365385       0.00888902      -0.21728650
Te      19.71813000      16.42392000      13.01329000       0.21038630      -0.01646004       0.26072140
Te      19.36150000      19.72072000      16.41442000       0.83448080      -0.11164870       0.11584750
Te      19.73087000      23.07678000      19.64264000       0.12091060       0.06817374       0.06731241
Te      19.80696000      26.26413000      22.85705000      -0.14724770       0.03940466      -0.00085694
Te      23.07574000      13.20766000      13.23283000      -0.36002950      -0.23925680      -0.16651620
Te      23.09845000      16.42031000      16.48733000      -0.17941470       0.39523630      -0.21233170
Te      23.08253000      19.77997000      19.66293000      -0.14130400       0.21145140      -0.12865630
Te      22.92602000      23.13152000      23.00949000       0.05224833      -0.08976860      -0.14527590
Te      22.90511000      26.30174000      26.35380000       0.10982070      -0.25703820      -0.31019890
Te      26.21739000      13.11590000      16.42818000       0.02643799       0.25836090      -0.16993540
Te      26.28446000      16.44712000      19.73170000       0.12484100      -0.14372250      -0.01887373
Te      26.32101000      19.76542000      22.65032000       0.02271823       0.10787520       0.65383820
Te      26.25488000      23.04093000      26.31204000       0.00510723      -0.22601890      -0.36052600
Te      26.29019000      26.26244000      29.54959000       0.01095320       0.30505820      -0.14468400
Te      16.51330000      16.42542000       3.35224100       0.00674120      -0.08270808      -0.16117310
Te      16.65228000      19.67257000       6.69509000      -0.77271930      -0.19488380      -0.46231540
Te      16.39688000      22.93965000       9.87306100       0.08090205       0.10082930       0.09174789
Te      16.42607000      26.15946000      13.12199000       0.00896040       0.72965340      -0.09836329
Te      16.42960000      29.47837000      16.42544000       0.08875170      -0.06437375      -0.00042207
Te      19.65616000      16.50596000       6.60613000       0.06134844      -0.21507290      -0.25143860
Te      19.74797000      19.54725000       9.79501100      -0.07355233       0.25470320       0.06508332
Te      19.54966000      22.79429000      13.25226000       0.73552780       0.56656280      -0.09567634
Te      19.81849000      26.26380000      16.33921000      -0.55448040       0.11235920       0.23797280
Te      20.04308000      29.71571000      19.69301000      -0.51674420      -0.27933080       0.07662978
Te      23.07083000      16.18416000       9.87414300      -0.27582540       0.63289890       0.16829860
Te      23.02291000      19.49420000      13.00654000      -0.26064190       0.60815470       0.23282040
Te      22.97399000      23.03033000      16.34501000       0.40997450      -0.18203530       0.14400260
Te      22.94041000      26.45829000      19.59691000       0.27341200      -0.33920080       0.23719510
Te      22.91751000      29.62675000      23.00362000       0.17344170      -0.16609060       0.00961111
Te      26.19777000      16.44533000      13.36514000       0.08876520      -0.05324385      -0.59418830
Te      26.28923000      19.66545000      16.28914000       0.03540604       0.02351818       0.06221633
Te      26.41678000      22.86946000      19.62529000      -0.39271130       0.20951860       0.41907080
Te      26.33360000      26.37962000      22.88862000      -0.16860160      -0.36113660       0.08645897
Te      26.07780000      29.49207000      26.20679000       0.37422030      -0.41303100       0.16573340
Te      29.76434000      16.47135000      16.34421000      -0.34950270       0.04827592       0.29678110
Te      29.61648000      19.73404000      19.73678000       0.06511735       0.06765305      -0.07742331
Te      29.62018000      22.97172000      23.09554000      -0.34993020      -0.01691625      -0.25474890
Te      29.46526000      26.03878000      26.24652000      -0.04146907       0.34165800      -0.01549755
Te      29.51530000      29.53476000      29.52756000      -0.09447360       0.17136570      -0.24599150
Pb       0.17586360      16.53812000      16.36538000      -0.23610500      -0.50018050       0.24515720
Pb      16.41042000       3.39648600      19.67462000       0.01648482      -0.08091280       0.10331300
Pb      32.78828000      22.96047000      22.98426000       0.09241164       0.02948054       0.14892180
Pb      32.65187000      26.24888000      26.28229000       0.36009630      -0.08934114      -0.27021170
Pb      32.71503000      29.46769000      29.50785000      -0.01964733      -0.02389950       0.28519710
Pb       3.36601800       0.06302140       3.32440000      -0.14161760       0.04198406       0.08077607
Pb       3.27067500       3.31543300       6.54168600       0.31151690       0.23462830       0.28596060
Pb      19.66278000      23.09523000      10.03064000      -0.07343433      -0.29108710      -0.17823830
Pb       3.28831500      10.02060000      13.22107000       0.13118460      -0.30337210      -0.25756830
Pb       3.55982600      13.28764000      16.54819000      -0.37559510      -0.17368410      -0.29606990
Pb      23.05237000      32.72513000      23.16860000      -0.24638280       0.26001200      -0.27446990
Pb       6.79497300       3.26491100       9.88061800      -0.62241200      -0.11331380      -0.24552020
Pb      23.12865000      22.80578000      13.10459000      -0.31669700       0.23962630      -0.00336904
Pb      22.87451000      26.25653000      16.34737000       0.45716250       0.13348440      -0.06434555
Pb       6.73812900      13.22829000      19.77065000       0.13885600      -0.05754885      -0.01262794
Pb      26.21394000      32.50762000      26.10650000       0.24073320       0.68234150       0.55849310
Pb      26.06337000      19.76846000      13.15643000       0.42566980      -0.04475596      -0.21014280
Pb      26.50658000      22.91829000      16.58407000      -0.18910150       0.09499099      -0.53513850
Pb      26.37985000      26.03269000      19.64820000      -0.09436645       0.39206590      -0.04417117
Pb       9.94988600      13.18547000      23.07762000      -0.01339305      -0.36613170      -0.35761770
Pb      29.38316000      16.45942000      13.25071000       0.19682190       0.07597381      -0.13843030
Pb      13.28369000       3.51909000      16.61094000       0.05044352      -0.43866660      -0.08394347
Pb      13.13365000       6.68197500      19.57961000       0.40302570      -0.23550520       0.30023240
Pb      29.53589000      26.20159000      23.22123000       0.15263080       0.11066340      -0.56678650
Pb      29.50358000      29.54245000      26.30443000       0.10624230       0.03682618      -0.14059450
Pb       3.54969000      19.69555000      16.31334000      -0.26733830       0.07997622       0.06575866
Pb       3.32646200       6.31456400       3.31932700      -0.05905641       0.52431360       0.09591251
Pb      19.68497000       9.96584000      23.01248000      -0.09019761      -0.00474356      -0.18841510
Pb       3.32820400      13.14140000       9.94828400      -0.38200440      -0.16415060      -0.26141220
Pb       3.38180200      16.47264000      13.26429000      -0.01846653       0.13882100       0.01269754
Pb       6.66838300      19.61338000      19.81393000      -0.11877800       0.15805170      -0.17897060
Pb       6.48219400       6.69612300       6.74391700      -0.06848037      -0.05985154      -0.32434790
Pb       6.59842600       9.91200400       9.73775200      -0.12071460      -0.39808520       0.52185520
Pb       6.29253400      13.01182000      12.99624000       0.29691670       0.05559008       0.49719270
Pb       6.94078600      16.48823000      16.34623000      -0.49295710      -0.07598481       0.15479930
Pb       9.61436600       3.26719100       6.59087100       0.35515170       0.16913140      -0.10963420
Pb       9.80928400       6.52884700       9.78052700       0.00659722      -0.17137510       0.04639676
Pb       9.87766000       9.88248700      13.09232000       0.04823176       0.05570463      -0.02649690
Pb       9.77798900      12.96259000      16.52712000       0.13200230       0.03428463      -0.06789734
Pb       9.89974500      16.40259000      19.68682000       0.11970950       0.03742421       0.15492030
Pb      13.05012000       3.26556700       9.85815300       0.06796940      -0.04477189      -0.21644730
Pb      13.11966000       6.38918700      12.95925000       0.06163627       0.65448250       0.12409070
Pb      13.09196000       9.83888800      16.37212000       0.00801307       0.11699010      -0.24729010
Pb      13.00141000      13.24568000      19.75676000       0.37223600      -0.03748498      -0.24925130
Pb      13.15466000      16.67614000      23.19078000       0.06998356      -0.54447980      -0.14360170
Pb      16.38546000      19.41506000      29.52848000       0.20681440       0.41983510       0.00150924
Pb      16.55377000       6.47868900      16.44875000       0.13825240       0.19549480       0.02343714
Pb      16.32561000      10.17383000      19.56788000       0.57717730      -0.62590240       0.08742726
Pb      16.36843000      13.05573000      23.12829000       0.32631010      -0.14155340      -0.15436870
Pb      16.56639000      16.57920000      26.38194000      -0.69388900      -0.37571000      -0.07484163
Pb       6.68669600       6.59449900       0.39282570      -0.18640690       0.24830710      -0.31318100
Pb       6.54437600       9.87224500       3.35561800      -0.33066060       0.06202793      -0.08249817
Pb      22.94406000      13.21410000      23.01989000      -0.04731604       0.30466270      -0.23851950
Pb       6.56165100      16.11079000       9.76788300       0.17683240       0.84585850       0.02401881
Pb      22.93354000      19.82325000      29.61474000       0.20907790      -0.12013130       0.02622121
Pb      10.00706000       6.69036600       3.33817900      -0.20773870      -0.35730790      -0.12880350
Pb      10.00159000      10.08571000       6.54418600      -0.27129580      -0.11322090       0.08870705
Pb       9.83767700      13.17530000       9.99605100       0.22529210      -0.05209239      -0.00481310
Pb       9.92441700      16.58679000      13.18411000       0.02666768      -0.10462100      -0.08067983
Pb       9.92289000      20.02225000      16.40083000       0.05909745      -0.12388290       0.02817349
Pb      13.08071000       6.63582800       6.64809900       0.07013475      -0.08840473      -0.51640710
Pb      13.01725000       9.76613800       9.70777600       0.21765340       0.41799250       0.39617840
Pb      12.90075000      13.15183000      13.27989000       0.40397790      -0.05817031      -0.23202740
Pb      13.06134000      16.25368000      16.62592000       0.35339240       0.24672000      -0.31246920
Pb      12.95639000      19.89454000      19.73796000       0.34738150      -0.21091370       0.01152480
Pb      16.39308000      22.98320000      26.14877000       0.13463590      -0.07831878       0.13003830
Pb      16.49003000       9.88665000      12.81246000      -0.22458260      -0.09455374       0.55621180
Pb      16.25520000      13.01756000      16.59076000      -0.02787065      -0.07223861      -0.14726130
Pb      16.41901000      16.49332000      19.54396000       0.22580020      -0.34597060       0.23265270
Pb      16.35654000      19.56771000      23.00334000      -0.25732720       0.03174371      -0.14605930
Pb      19.71095000      22.95555000      29.50954000      -0.23320620       0.29964630      -0.02830438
Pb      19.69687000       9.89417600      16.37382000      -0.16495950      -0.05868283       0.05083991
Pb      20.04317000      13.19208000      19.76129000      -0.33789350      -0.17324560       0.14980920
Pb      19.51959000      16.58286000      23.22377000       0.54231570      -0.39814450      -0.54856040
Pb      19.79296000      19.56975000      25.98002000      -0.07156955       0.41164720       0.46672760
Pb      26.12337000      10.03688000      16.34440000       0.16688740      -0.19006140       0.15904150
Pb       9.93309100      13.17618000       3.32987900       0.32870060       0.03404389      -0.00266262
Pb      26.52665000      16.67837000      22.98094000      -0.60068790      -0.44302720      -0.14750500
Pb      26.25777000      19.65543000      26.15515000      -0.02338941       0.08044324       0.17240520
Pb      26.03862000      23.15481000      29.45189000       0.45201530      -0.29907430       0.35817510
Pb      12.90791000       9.80395500       3.36942700       0.16263960       0.26090360      -0.30717140
Pb      13.19700000      13.37672000       6.68156900      -0.16592530      -0.16084180      -0.04390117
Pb      13.28470000      16.38941000      10.20928000      -0.01597357      -0.18099770      -0.10853110
Pb      13.09661000      19.81886000      13.26913000       0.13344240      -0.02397098       0.19477300
Pb      13.08381000      23.16733000      16.38954000       0.15909040      -0.07553583       0.04177806
Pb      16.58765000      26.14510000      22.79848000      -0.25088510      -0.07070118       0.03916204
Pb      16.31542000      12.99794000       9.96377700       0.19617470       0.34494660       0.04876470
Pb      16.65683000      16.38175000      13.25862000      -0.48188280       0.19202120      -0.36347590
Pb      16.26155000      19.64615000      16.35824000       0.06492136      -0.11437900      -0.08718507
Pb      16.52821000      22.82626000      19.58555000      -0.20782220       0.09958123       0.17338400
Pb      19.54170000      26.17320000      25.96870000       0.21485790       0.03063995       0.55935110
Pb      19.69094000      13.31816000      13.24320000      -0.22621910      -0.39490980       0.02628888
Pb      19.58405000      16.31681000      16.58101000       0.20226460       0.42057690      -0.00299193
Pb      19.54537000      19.68640000      19.82314000       0.21420560      -0.04832611      -0.84498550
Pb      19.69297000      22.96252000      22.75664000      -0.21961770       0.04584067       0.45865140
Pb      23.08112000      26.30019000      29.55357000      -0.34830010       0.14688290       0.06110424
Pb      22.92505000      13.33548000      16.56318000      -0.02156592      -0.38384960      -0.24955940
Pb      23.03073000      16.61702000      19.71457000      -0.09800965      -0.09244931       0.12498850
Pb      23.03092000      19.74858000      23.02914000       0.01751190       0.04931154      -0.14489300
Pb      22.98640000      22.83764000      26.27976000      -0.13990800       0.25185590       0.20355620
Pb      29.60342000      29.65619000      32.69681000       0.17152290      -0.05603624       0.47094310
Pb      13.24920000      16.24125000       3.32108500       0.01400945       0.45500590      -0.06150313
Pb      13.32413000      19.77111000       6.88631200      -0.01455105       0.20842490      -0.41352690
Pb      13.17102000      22.67616000       9.87118800       0.05671341       0.68493100       0.22664970
Pb      29.57018000      26.33244000      29.32052000      -0.03837378      -0.30373540       0.70425740
Pb      16.85195000      29.30533000      19.68115000      -0.61842480       0.61794780      -0.13874330
Pb      16.34848000      16.35085000       6.55640200       0.25065310       0.08445768       0.01673845
Pb      16.40123000      19.65158000       9.82030600       0.36887650       0.09018954       0.35090810
Pb      16.54728000      23.19799000      13.30340000      -0.56482850      -0.87945750      -0.31434870
Pb      16.41303000      26.14336000      16.34333000      -0.15896150       0.29112870      -0.02953527
Pb      19.61915000      13.36077000       6.43696700       0.08887502      -0.15098400       0.43290270
Pb      19.75342000      16.30779000       9.76790900      -0.06177166       0.18999820       0.18331290
Pb      19.46273000      19.74702000      13.22615000       0.05740669      -0.18532580      -0.09216325
Pb      19.88118000      22.99515000      16.50328000      -0.38157650      -0.14454600      -0.31400820
Pb      19.55793000      26.49304000      19.73461000       0.47551370      -0.31650080      -0.30475790
Pb      22.74144000      13.09205000       9.97513300      -0.00068183      -0.29958020       0.00008795
Pb      22.95367000      16.41163000      13.16778000       0.04209105      -0.28731390       0.13272210
Pb      23.03881000      19.75278000      16.40045000      -0.15236850      -0.07200544       0.22640590
Pb      22.94357000      23.26238000      19.66265000       0.10745290      -0.22285330       0.00898490
Pb      23.04994000      26.33447000      22.98565000       0.16851940       0.03767672       0.04648702
Pb      26.15406000      13.26833000      13.04108000       0.14950690      -0.06202253       0.27401650
Pb      26.37656000      16.29906000      16.44796000       0.08250405       0.17555240       0.24021750
Pb      26.34589000      19.62504000      19.52223000      -0.07802055      -0.06268298      -0.06859431
Pb      26.04112000      22.83024000      23.12490000       0.41747740       0.47903710      -0.07822159
Pb      26.19142000      26.31203000      26.28316000      -0.19788550      -0.19314530      -0.15556480
250
Lattice="0.0 16.42598 16.42598 16.42598 0.0 16.42598 16.42598 16.42598 0.0" Properties=species:S:1:pos:R:3:force:R:3 energy=-927.3472 config_type=nep2xyz pbc="T T T"
Te       3.38401000       3.03132200       3.69535500      -0.18300850       0.19979210      -0.84970900
Te       2.82722800       6.73418400       6.39795800       0.78562720      -0.29652510       0.67885300
Te       3.21684700       9.82822100      10.16247000      -0.28896340      -0.09617798      -0.54077170
Te       3.12104000      13.48984000      13.27220000       0.04370493      -0.25093520      -0.12184770
Te       3.41048800      16.43613000      16.88768000      -0.00424947      -0.13496520      -0.13435350
Te       6.45615100       3.65117600       6.35290700      -0.05512728      -0.42186030       0.56549420
Te       6.64597100       6.58588700       9.78744000      -0.14752800       0.21964720      -0.32550860
Te       6.86119200      10.15500000      13.31832000      -0.23454440      -0.68676600      -0.17097020
Te       6.63897400      13.16099000      16.19486000       0.12403710       0.09405519       1.03255800
Te       6.24799400      16.64525000      19.85775000       0.21077940      -0.46989180       0.32469800
Te      10.21557000       3.32834600       9.44671200      -0.73041970       0.17324950      -0.03024538
Te       9.76118200       6.61653100      12.93017000       0.22245710       0.00688637       0.30511290
Te      10.26986000       9.85508400      16.43330000      -0.53784640       0.47176220       0.00892211
Te       9.85253500      13.16358000      19.68503000       0.22530790       0.17041560       0.41863170
Te       9.62719800      16.43839000      22.78900000       0.06915698      -0.26742030       0.56684540
Te      12.87823000       3.00536500      12.92851000       0.40592300       0.40038480       1.09926700
Te      13.09321000       6.44265900      16.18555000       0.54516130       0.04870545       0.51742060
Te      13.35991000       9.68121900      19.89807000       0.40683170       0.35888210      -0.95941240
Te      13.48059000      12.82358000      23.12452000      -0.90242250       1.28516100       0.15735070
Te      13.15466000      16.49875000      26.75692000       0.03364005       0.02520200      -0.63826080
Te      16.47017000       3.62812800      16.27559000       0.02128429      -0.33773310       0.64076890
Te      16.52915000       6.70584800      19.50497000      -0.21113390      -0.22384680      -0.00303808
Te      16.08820000       9.89140000      22.73751000       0.80744980      -0.14297090       0.12044050
Te      16.84271000      13.21617000      26.07665000      -1.29981400       0.21870810       0.64076610
Te      16.48232000      16.48230000      29.69719000      -0.82992820       0.63931390       0.20413960
Te       6.67379800       6.60230100       3.44538900      -0.72131970       0.14568010      -0.52739670
Te       6.56817900      10.13127000       6.84151400       0.00814554      -1.14956100      -0.21440130
Te       6.51727300      13.44512000       9.83079100      -0.08999737      -0.73429190      -0.08514706
Te       6.77566600      16.43093000      13.42564000      -0.12592520       0.00023965      -0.10994090
Te       6.77335700      19.97246000      16.76220000      -0.40352560      -0.51959300      -1.05736000
Te       9.62039200       6.57430100       6.70565600       0.18274570       0.11946990      -0.45040750
Te       9.35003200       9.71838200       9.90888400       1.08641900       1.10207300      -0.09241790