250
Lattice="0.0 16.42598 16.42598 16.42598 0.0 16.42598 16.42598 16.42598 0.0" Properties=species:S:1:pos:R:3:force:R:3 energy=-949.2654 config_type=nep2xyz pbc="T T T"
Te       3.33005400       3.39261200       3.24738700       0.11727260      -0.23311790      -0.05684474
Te       3.20882400       6.60170600       6.62081200      -0.07593513      -0.29822090      -0.21201920
Te       3.15130400       9.89275700       9.64796700       0.30827210      -0.08746278       0.27923580
Te       3.31048600      13.01921000      13.02523000      -0.14919340       0.29699700      -0.00664550
Te       3.12880400      16.48414000      16.47977000       0.44916660      -0.09991354      -0.24098220
Te       6.55777300       3.45444200       6.68616000      -0.09796778      -0.32458440      -0.14620970
Te       6.59561300       6.67649200       9.97252100      -0.57217970      -0.42936360      -0.13597150
Te       6.58437200       9.96172200      13.10827000      -0.16019900      -0.34966600      -0.43441950
Te       6.74500700      13.00691000      16.47912000      -0.26885610       0.38100400      -0.57760050
Te       6.54309300      16.45097000      19.75334000       0.17711220      -0.02440957      -0.04131353
Te       9.70009500       3.31459100       9.57488800       0.36163440      -0.14519010       0.94460200
Te       9.90057300       6.49547400      12.88628000      -0.49702550       0.11938940       0.58708650
Te      10.00376000       9.89693800      16.49729000      -0.46605420      -0.32308330      -0.27433520
Te       9.93293600      13.09744000      19.72417000      -0.12349740       0.00984102       0.28900860
Te      10.04707000      16.40876000      23.05583000      -0.36955920       0.01314078      -0.09015600
Te      13.18946000       3.37951700      13.19895000      -0.04529922      -0.49220240      -0.03097282
Te      13.19721000       6.63650800      16.30541000      -0.09119696      -0.19254700       0.37483030
Te      13.22939000       9.90178700      19.94458000      -0.36705810      -0.11137640      -0.23103030
Te      13.18193000      13.25425000      23.22764000      -0.00040266      -0.29756870      -0.47006400
Te      13.25154000      16.25990000      26.34422000       0.09875458       0.25364550      -0.28943020
Te      16.39202000       3.26013100      16.36388000       0.49701500      -0.16054110       0.21424660
Te      16.46425000       6.44795600      19.86745000      -0.07222086       0.47389920      -0.13628600
Te      16.42605000       9.71549100      23.09223000       0.04579803      -0.00042500      -0.18154780
Te      16.39445000      13.12788000      26.41575000       0.03044013      -0.02695397      -0.17471260
Te      16.44619000      16.45676000      29.62489000       0.01901694      -0.29432870       0.09630623
Te       6.63067900       6.51300300       3.20176000      -0.11014530       0.21433150       0.27431150
Te       6.64553500       9.95343900       6.38585000      -0.10803600      -0.09245336       0.44082790
Te       6.47575100      13.01244000       9.77330600       0.35967910       0.24877190      -0.14182080
Te       6.62823100      16.52183000      13.07635000      -0.26504310      -0.33986720       0.12758230
Te       6.51737500      19.73958000      16.47153000       0.00629243      -0.05948693       0.02156497
Te       9.77163500       6.78190800       6.48982800       0.07613652      -0.28176710       0.03948660
Te       9.83201700       9.79020700       9.63158100       0.42809620       0.15874570       0.60284270
Te       9.75677800      13.05276000      13.18279000       0.22277580      -0.11465260       0.03741439
Te       9.81955900      16.32179000      16.44629000       0.03888137      -0.02355092       0.02551726
Te       9.86960000      19.67364000      19.63957000       0.15165040      -0.03027190       0.15627730
Te      12.92598000       6.46601700       9.78982500       0.38049500       0.18480650       0.13457090
Te      13.04817000       9.77165700      13.16610000       0.24405640       0.32430410      -0.07219913
Te      13.32900000      13.24864000      16.60845000      -0.37388260      -0.25974800      -0.21325420
Te      13.29090000      16.33338000      19.75359000      -0.36305620       0.48129180       0.04682254
Te      13.10879000      19.74820000      22.96765000      -0.03415016       0.03463246       0.00643948
Te      16.31367000       6.48063000      13.16460000       0.26519250       0.19326250      -0.06835461
Te      16.50210000       9.67998200      16.49698000      -0.04621749       0.33551640      -0.12798920
Te      16.38224000      12.94165000      19.81160000       0.04760114       0.54104650      -0.10173380
Te      16.53291000      16.28583000      22.90763000      -0.01595658      -0.00247342       0.23977340
Te      16.35296000      19.78290000      26.13454000       0.05884368      -0.17936060       0.27559930
Te      19.89271000       6.58716000      16.34343000      -0.20944450      -0.12954060       0.08986015
Te      19.80477000       9.90594700      19.44582000      -0.50464210      -0.12599800       0.49058660
Te      19.84056000      13.04252000      22.76701000      -0.07956590       0.14684160       0.60991590
Te      19.79282000      16.27542000      26.43918000      -0.12624210       0.20069180      -0.25209460
Te      19.76349000      19.72672000      29.37740000      -0.09855567      -0.08871611       0.49766980
Te       9.74672300       9.80656000       3.23603900       0.32117980       0.04093455      -0.04969049
Te       9.82696200      13.15086000       6.75570100       0.31552200      -0.00292335      -0.20089410
Te       9.94437000      16.58408000       9.90496300      -0.14051010      -0.39467400       0.15235310
Te       9.87683600      19.66534000      13.15615000      -0.24427550      -0.01188388       0.11185330
Te       9.93341900      22.77718000      16.39297000      -0.19822540       0.33587680       0.04867312
Te      13.21384000      10.01764000       6.57644000      -0.24569080      -0.29055260      -0.19662910
Te      13.23936000      12.84492000      10.01887000      -0.17052730       0.69835030      -0.19285220
Te      13.18905000      16.55322000      13.25155000      -0.09011893      -0.45195710      -0.34888540
Te      13.07794000      19.69324000      16.31431000       0.04217796       0.04905437       0.32581120
Te      13.14636000      22.96995000      19.62638000      -0.00064159      -0.08430547       0.11312670
Te      16.43065000       9.83323100       9.76637600       0.23046370       0.42952380       0.00856999
Te      16.43787000      13.09443000      13.19593000      -0.05433755      -0.28359970      -0.13892850
Te      16.49303000      16.45800000      16.42888000      -0.15478890      -0.32795110      -0.10976430
Te      16.53526000      19.86601000      19.69228000      -0.30117190      -0.59346010      -0.16361460
Te      16.46402000      23.03726000      22.93054000      -0.22719790      -0.07315041       0.02128721
Te      19.79283000       9.84114100      12.99073000      -0.09235839      -0.07720842       0.35169010
Te      19.67053000      13.24442000      16.34760000       0.29583290      -0.10027210      -0.07146165
Te      19.67735000      16.38792000      19.85475000       0.17822490      -0.10174570      -0.09788144
Te      19.54294000      19.74408000      23.05278000       0.51657790      -0.14274790      -0.20960370
Te      19.72134000      22.80122000      26.06949000      -0.10149440       0.26167630       0.51758310
Te      22.99233000      10.14335000      16.41061000       0.28504800      -0.36202140      -0.11973460
Te      22.99967000      13.19890000      19.51760000      -0.10070570      -0.01736769       0.52378220
Te      22.97387000      16.44731000      22.98725000      -0.00431634       0.11451300      -0.02829884
Te      23.00198000      19.69154000      26.29055000      -0.32092750       0.01915886      -0.21962670
Te      22.92122000      22.90568000      29.53292000       0.41121550       0.37766020      -0.06045853
Te      13.21815000      13.11147000       3.38609300      -0.05708537       0.11034790      -0.13933940
Te      12.87489000      16.52948000       6.71588600       0.72242280      -0.33264580      -0.16540130
Te      13.16299000      19.83006000       9.93056100       0.06672106      -0.50314910      -0.33357020
Te      13.12794000      22.93381000      13.08048000       0.13448990       0.43738490       0.27469520
Te      13.03032000      26.18613000      16.37717000       0.43183900       0.65162190      -0.11207380
Te      16.44208000      13.11167000       6.49329800      -0.33189740       0.23575220       0.14472640
Te      16.39030000      16.47001000       9.87540400       0.32130300      -0.02787595      -0.15605650
Te      16.23128000      19.78518000      13.15138000       0.32763620      -0.17067780      -0.15215620
Te      16.37861000      22.94127000      16.43372000       0.07789278       0.06856643       0.23446920
Te      16.39265000      26.14752000      19.44998000       0.22205360       0.48707450       0.52375650
Te      19.80528000      13.20742000       9.68658600      -0.52219550       0.13803420       0.45458570
Te      19.75557000      16.36110000      13.31220000      -0.14031310      -0.17708250      -0.36578490
Te      19.65176000      19.54160000      16.40473000       0.06732336       0.49333740       0.27211850
Te      19.82419000      22.65887000      19.82405000      -0.22631910       0.81544440      -0.47295870
Te      19.78221000      26.26038000      23.01464000       0.00618528       0.16578790       0.02533046
Te      23.04464000      13.18988000      13.16504000      -0.24814250      -0.16602630      -0.22447850
Te      22.95001000      16.57998000      16.53361000       0.28336080      -0.13910480      -0.20313700
Te      22.97244000      19.74343000      19.63001000       0.26227920      -0.07678498       0.47127020
Te      22.83822000      23.20351000      22.99051000       0.93190790      -0.34801300      -0.02260585
Te      23.34730000      26.30438000      26.26646000      -0.55704620       0.08190120       0.00528269
Te      26.40206000      13.24236000      16.37311000      -0.03272018      -0.15638320       0.15129540
Te      26.33110000      16.34500000      19.84826000       0.01716205       0.01615164      -0.26532450
Te      26.26435000      19.71779000      23.22099000      -0.27963630      -0.07154197      -0.53992160
Te      26.21278000      23.16743000      26.30807000      -0.00191394      -0.25844770      -0.11929950
Te      26.31581000      26.21356000      29.67370000       0.00408448       0.20358600      -0.30578500
Te      16.48746000      16.49832000       3.22916600      -0.21859070      -0.26698040       0.34737620
Te      16.47643000      19.85393000       6.44521900      -0.12806180      -0.50759940       0.30667480
Te      16.49539000      23.03617000      10.09309000      -0.44373580      -0.30367000      -0.34158470
Te      16.34932000      26.18248000      13.24700000      -0.09995787       0.21319750      -0.24251790
Te      16.44376000      29.53104000      16.39779000       0.06614051       0.05352623       0.38421000
Te      19.63292000      16.31363000       6.54789500       0.06544667       0.47929920       0.13263180
Te      19.65564000      19.83108000       9.84367200       0.25843800      -0.13872270       0.09188297
Te      19.69851000      23.04478000      13.33507000       0.21809320      -0.20181550      -0.25293040
Te      19.85472000      26.31201000      16.44010000      -0.42996280       0.05571454      -0.11819820
Te      19.75269000      29.59612000      19.62152000      -0.13052430      -0.17415950      -0.05496764
Te      23.22556000      16.47020000       9.95587100      -0.45950250      -0.01083739      -0.14546260
Te      23.02924000      19.61041000      13.32787000      -0.07311735       0.48709840      -0.46396190
Te      22.92485000      23.06872000      16.56012000       0.11055800      -0.26197960      -0.25012600
Te      23.28620000      26.37824000      19.65061000      -0.75048140      -0.50236280       0.12522240
Te      22.94973000      29.78206000      22.83798000       0.16251210      -0.33614530       0.42835870
Te      26.28368000      16.39651000      13.18029000       0.13210510       0.02304174       0.11179170
Te      26.19045000      19.70762000      16.32610000       0.26625830      -0.09182504       0.01195502
Te      26.35741000      22.77971000      19.63060000      -0.10118470       0.36758070       0.01764910
Te      26.42254000      26.15244000      22.97827000      -0.35489070       0.27829090       0.18380270
Te      26.09417000      29.58761000      26.31055000       0.48510790       0.21165160      -0.27986580
Te      29.61230000      16.55896000      16.41072000      -0.20118350      -0.47194810       0.17675000
Te      29.50841000      19.90397000      19.75520000       0.34241210      -0.38588860       0.30004640
Te      29.38572000      22.93872000      23.22986000       0.28851250       0.19356650      -0.59293310
Te      29.65914000      26.10850000      26.32840000       0.13759670       0.21288720       0.18167140
Te      29.63465000      29.56981000      29.53047000      -0.03182595      -0.01931326       0.42741960
Pb      16.42254000      16.48054000       0.13393070      -0.13001870      -0.11518730      -0.25492350
Pb       0.20786060       3.42350600       3.28301200      -0.10797960      -0.27351020      -0.00632170
Pb      32.58071000      22.94262000      23.20062000       0.16032620       0.08115261      -0.05799555
Pb      16.41466000      26.20407000       9.81556800       0.12414510       0.33700210       0.08616359
Pb      16.46335000      29.31725000      13.34239000      -0.22031970       0.26030530      -0.75166770
Pb       3.21064000       0.17905240       3.21953400       0.32081960      -0.12865320       0.35168480
Pb      19.68138000      19.67932000       6.60529500      -0.02668549      -0.01148051      -0.06983393
Pb       3.08820400       6.73289200       9.76018100       0.39392190      -0.05668672       0.23286110
Pb      19.42415000      26.21509000      12.94826000       0.46400330      -0.07230134       0.26449490
Pb       3.09762100      13.32802000      16.20462000       0.54712590      -0.37278780       0.36912580
Pb       6.77392900      16.44783000      23.12749000       0.04240398      -0.04609249      -0.18803320
Pb      23.01755000      19.70214000       9.88600400      -0.18009370       0.02787442       0.23924300
Pb      22.92457000      23.05445000      13.20663000       0.02745209      -0.12452740       0.03258450
Pb       6.56553600       9.81223200      16.15184000       0.09604687       0.17075340       0.44454420
Pb      22.88556000      29.42693000      19.50448000       0.11273430       0.45697870       0.33436420
Pb      10.05094000       0.21066490       9.97677500      -0.11415980      -0.37682130      -0.21867730
Pb      26.25311000      19.64780000      13.11406000      -0.06639840       0.04485934      -0.05307056
Pb      26.11490000      22.80906000      16.30504000       0.34231020       0.40472320       0.12261050
Pb      26.31998000      26.26431000      19.73525000       0.40774520      -0.13114490      -0.05174765
Pb      26.18954000      29.44160000      23.07117000       0.02026399       0.30031990      -0.07195200
Pb      13.13994000      16.46174000      29.37420000      -0.05701006       0.04509888       0.43900900
Pb      29.82784000      19.64333000      16.70027000      -0.62031830       0.49699720      -0.56778910
Pb      13.12349000       6.61302300      19.71216000      -0.02725950       0.44317080      -0.15320150
Pb      29.47725000      26.41938000      23.19174000       0.39713010      -0.06829256      -0.39621140
Pb      29.54927000      29.49632000      26.34479000       0.11484050       0.05991211       0.09806807
Pb      19.76540000      19.65312000      32.62096000       0.09351935       0.45148670       0.17876700
Pb      19.67483000       6.55761000      19.60799000       0.16185470       0.28092940      -0.05385623
Pb       3.33146000       9.77294700       6.49423600      -0.09052529       0.22374290      -0.18455370
Pb      19.69128000      13.11523000      26.16624000      -0.20847480      -0.04920411      -0.06743066
Pb      19.65766000      16.45987000      29.61387000       0.12922390      -0.03022461       0.02994642
Pb       6.73368600      19.69440000      19.83591000      -0.26567880      -0.02854335      -0.19643190
Pb       6.39451300       6.53483000       6.61756400       0.17857680       0.23350030      -0.13535620
Pb       6.83429200       9.72964100       9.59340100      -0.48340710       0.33332060       0.13202910
Pb       6.43259800      13.11474000      12.85745000       0.15042970       0.17199850       0.40141710
Pb       6.63282800      16.44751000      16.44243000      -0.02161714      -0.18001270       0.05534042
Pb       9.78272500       3.50012200       6.60708600       0.26895400      -0.17435330      -0.69192890
Pb       9.63059800       6.44905400       9.77340200       0.40535960       0.38834410      -0.17579450
Pb       9.75747900       9.84928400      13.17660000       0.11691930      -0.19051370      -0.08085597
Pb       9.92590500      13.05401000      16.61873000       0.01657403       0.03485156      -0.21388550
Pb       9.83490200      16.37281000      19.75953000      -0.08863780       0.04906864       0.12665100
Pb      13.22591000       3.39525000       9.97887300      -0.06880531      -0.21410200      -0.13716900
Pb      13.01173000       6.49852200      13.01868000       0.36946090       0.21055810       0.24820580
Pb      13.06406000       9.86442600      16.36387000       0.50763780      -0.03128037       0.06673171
Pb      13.10356000      13.28509000      19.91576000      -0.01439681      -0.43461580      -0.09774890
Pb      13.31356000      16.45395000      23.05149000      -0.07370705       0.09059940      -0.07067213
Pb      16.45852000      19.60104000      29.65267000      -0.10865900       0.28562030      -0.42862290
Pb      16.57173000       6.42656400      16.48823000      -0.13935020       0.49959290      -0.14852200
Pb      16.22486000       9.86989100      19.66808000       0.42899640      -0.38158500      -0.09443296
Pb      16.60127000      12.78000000      23.03098000      -0.16503270       0.47101130       0.27567910
Pb      16.61199000      16.52125000      26.52029000      -0.33527260      -0.15060360      -0.38819080
Pb       6.77964400      23.00168000      16.41443000      -0.30457540       0.13680740      -0.03784958
Pb      22.80922000       9.91820100      19.71359000       0.38850000      -0.14796300      -0.45025840
Pb       6.73344800      13.16518000       6.53519800      -0.48410830      -0.09387906      -0.15440620
Pb      22.91720000      16.38561000      26.18712000       0.36990790       0.10038360       0.20695400
Pb      23.01286000      19.71453000      29.51284000       0.11319310      -0.00482800       0.02873357
Pb       9.91264000      22.96636000      19.71264000      -0.21172840       0.03785159      -0.08171809
Pb       9.87933300      10.04107000       6.54293400       0.08962594      -0.39405720      -0.25784030
Pb      10.05733000      13.32931000      10.03364000      -0.32432450      -0.17695080      -0.12582880
Pb       9.71292400      16.13400000      13.19649000       0.22933720       0.55535190      -0.02651426
Pb       9.75425200      19.47052000      16.44489000       0.25686590       0.24929620      -0.18392210
Pb      13.03681000       6.55971400       6.71208500       0.18614190      -0.04958032      -0.41760600
Pb      13.27728000       9.80750700       9.70888400      -0.13213230      -0.38371440       0.20052360
Pb      13.07094000      13.17966000      13.13208000       0.04724211      -0.08560375       0.48169340
Pb      13.23868000      16.44585000      16.35814000      -0.00114341       0.09574867       0.24290520
Pb      13.10623000      19.63555000      19.66198000       0.13567770       0.17338760      -0.03876853
Pb      16.46801000       6.78782800       9.80034900       0.04530258      -0.51227490      -0.06133168
Pb      16.29169000       9.66743900      12.94484000      -0.06673234      -0.05510487       0.25337510
Pb      16.43365000      12.99341000      16.55223000       0.00730937      -0.12266410      -0.09971912
Pb      16.42261000      16.50397000      19.70852000       0.10153840       0.03633049       0.02859251
Pb      16.41671000      19.42996000      22.84213000      -0.28382130       0.23691400       0.14771780
Pb      19.86266000      23.10201000      29.53732000      -0.41449600      -0.27613700      -0.12298970
Pb      19.82959000      10.14470000      16.35735000      -0.21951570      -0.38174440      -0.06670041
Pb      19.50296000      13.19024000      19.72806000       0.22469510      -0.11527420      -0.25318510
Pb      19.78524000      16.54556000      23.11952000      -0.19369350      -0.19018370      -0.12198770
Pb      19.51805000      19.63947000      26.26509000       0.19959660       0.24447490      -0.14617580
Pb      26.30521000       9.96093400      16.42724000      -0.34809210      -0.05541534       0.17602790
Pb      26.11815000      13.04474000      19.62092000       0.30327080       0.11409050      -0.06749480
Pb       9.83072700      16.22415000       6.72874200      -0.16162550       0.56276440      -0.10744850
Pb      26.08271000      19.79588000      26.36772000       0.22736150       0.12599470       0.05810788
Pb       9.98268600      22.95959000      13.13737000      -0.24232800      -0.19316300       0.06080792
Pb      13.00922000      26.28419000      19.49098000      -0.12404620       0.13335620       0.35832120
Pb      13.07108000      13.15923000       6.80094500       0.21700570       0.14946420      -0.39239810
Pb      13.23313000      16.72222000       9.99095800      -0.31161360      -0.11344420      -0.06148067
Pb      13.01887000      19.82963000      13.09640000      -0.03272819      -0.22834320       0.32121470
Pb      12.98794000      23.13911000      16.35642000       0.29160750      -0.66409620       0.08019840
Pb      16.28876000      26.13835000      22.48672000       0.32582880      -0.00423808       0.65957090
Pb      16.36575000      13.25351000       9.84890500       0.33549760      -0.19403330      -0.02565801
Pb      16.39005000      16.14233000      13.10120000      -0.00688558       0.44367250       0.26529810
Pb      16.41525000      19.56818000      16.36000000      -0.19444570       0.13504640       0.11281970
Pb      16.27353000      23.00010000      19.62185000       0.14137320      -0.14851350       0.32851790
Pb      19.97868000      10.13815000       9.96970300      -0.02761141      -0.36220200      -0.55108900
Pb      19.71208000      12.92812000      13.15269000      -0.06211244       0.46554980       0.00434452
Pb      19.74105000      16.44648000      16.57411000      -0.09287044      -0.02582691       0.06657410
Pb      19.75252000      19.62504000      19.78950000      -0.13659770      -0.19351750      -0.05897633
Pb      19.85793000      23.10619000      22.88853000      -0.87103190      -0.00202260       0.29592950
Pb      23.09203000      26.29119000      29.56183000      -0.09900782      -0.04622067       0.06567845
Pb      23.12951000      13.39873000      16.40231000      -0.11066440      -0.34454830      -0.13291840
Pb      22.94900000      16.46266000      19.67527000       0.08296006      -0.08246704       0.13764220
Pb      22.86773000      19.62504000      22.86871000       0.14759130       0.07968748       0.20754260
Pb      22.96423000      23.11941000      26.13583000      -0.12883030      -0.18929130       0.34804590
Pb      13.32813000      29.65668000      16.50144000      -0.51951570       0.06484733       0.05073145
Pb      29.68597000      16.76099000      19.72694000      -0.24474570      -0.51483580       0.04994505
Pb      12.93856000      19.64014000       6.70696700       0.13949160       0.23186770       0.02830749
Pb      29.32474000      22.87911000      26.34704000       0.14135770       0.38967760       0.02804934
Pb      29.47067000      26.34182000      29.49815000       0.06471918      -0.02966627       0.07723231
Pb      16.42265000      29.47798000      19.64711000      -0.12597210       0.08615224       0.18322950
Pb      16.45151000      16.45059000       6.54240400      -0.01318980      -0.12502280       0.00532551
Pb      16.56326000      19.78433000       9.74159000      -0.33387750       0.10959380       0.17765470
Pb      16.59686000      23.01925000      13.38636000      -0.26256010      -0.35862160      -0.35662060
Pb      16.43867000      26.12225000      16.45753000       0.12964370       0.01640184      -0.52144190
Pb      19.55576000      13.17125000       6.54301300       0.29742530      -0.16789220      -0.23690340
Pb      19.68446000      16.72042000      10.03557000       0.14428940      -0.25214930      -0.15498250
Pb      19.32025000      19.42810000      13.35427000       0.33084150       0.44524190      -0.27821060
Pb      19.67470000      23.13631000      16.58252000      -0.02563077      -0.05295120      -0.09804857
Pb      19.90595000      26.34342000      19.92376000      -0.03397822       0.07378425      -0.37999130
Pb      22.88516000      13.08777000       9.84629500       0.30333160       0.15427570      -0.19442300
Pb      22.96590000      16.51446000      13.10240000       0.07613908      -0.14674260       0.11117280
Pb      22.98297000      19.69686000      16.49766000      -0.14420840       0.26601730      -0.24901480
Pb      22.95583000      22.93259000      19.80743000       0.15147960       0.13886150      -0.21411910
Pb      23.19978000      26.34447000      22.91931000      -0.28761650       0.22795980       0.01288093
Pb      26.13829000      29.57494000      29.38743000       0.28319050      -0.04304890       0.37533370
Pb      26.32733000      16.47762000      16.56522000      -0.00302687      -0.16626390       0.01091953
Pb      26.43030000      19.56130000      19.48642000      -0.42911310       0.10301500       0.36351600
Pb      26.26812000      22.91116000      22.94873000      -0.18850300      -0.16402050       0.01925100
Pb      26.61837000      26.42873000      26.38491000      -0.54671570      -0.12070840      -0.05063792
250
Lattice="0.0 16.42598 16.42598 16.42598 0.0 16.42598 16.42598 16.42598 0.0" Properties=species:S:1:pos:R:3:force:R:3 energy=-927.3472 config_type=nep2xyz pbc="T T T"
Te       3.38401000       3.03132200       3.69535500      -0.18300850       0.19979210      -0.84970900
Te       2.82722800       6.73418400       6.39795800       0.78562720      -0.29652510       0.67885300
Te       3.21684700       9.82822100      10.16247000      -0.28896340      -0.09617798      -0.54077170
Te       3.12104000      13.48984000      13.27220000       0.04370493      -0.25093520      -0.12184770
Te       3.41048800      16.43613000      16.88768000      -0.00424947      -0.13496520      -0.13435350
Te       6.45615100       3.65117600       6.35290700      -0.05512728      -0.42186030       0.56549420
Te       6.64597100       6.58588700       9.78744000      -0.14752800       0.21964720      -0.32550860
Te       6.86119200      10.15500000      13.31832000      -0.23454440      -0.68676600      -0.17097020
Te       6.63897400      13.16099000      16.19486000       0.12403710       0.09405519       1.03255800
Te       6.24799400      16.64525000      19.85775000       0.21077940      -0.46989180       0.32469800
Te      10.21557000       3.32834600       9.44671200      -0.73041970       0.17324950      -0.03024538
Te       9.76118200       6.61653100      12.93017000       0.22245710       0.00688637       0.30511290
Te      10.26986000       9.85508400      16.43330000      -0.53784640       0.47176220       0.00892211
Te       9.85253500      13.16358000      19.68503000       0.22530790       0.17041560       0.41863170
Te       9.62719800      16.43839000      22.78900000       0.06915698      -0.26742030       0.56684540
Te      12.87823000       3.00536500      12.92851000       0.40592300       0.40038480       1.09926700
Te      13.09321000       6.44265900      16.18555000       0.54516130       0.04870545       0.51742060
Te      13.35991000       9.68121900      19.89807000       0.40683170       0.35888210      -0.95941240
Te      13.48059000      12.82358000      23.12452000      -0.90242250       1.28516100       0.15735070
Te      13.15466000      16.49875000      26.75692000       0.03364005       0.02520200      -0.63826080
Te      16.47017000       3.62812800      16.27559000       0.02128429      -0.33773310       0.64076890
Te      16.52915000       6.70584800      19.50497000      -0.21113390      -0.22384680      -0.00303808
Te      16.08820000       9.89140000      22.73751000       0.80744980      -0.14297090       0.12044050
Te      16.84271000      13.21617000      26.07665000      -1.29981400       0.21870810       0.64076610
Te      16.48232000      16.48230000      29.69719000      -0.82992820       0.63931390       0.20413960
Te       6.67379800       6.60230100       3.44538900      -0.72131970       0.14568010      -0.52739670
Te       6.56817900      10.13127000       6.84151400       0.00814554      -1.14956100      -0.21440130
Te       6.51727300      13.44512000       9.83079100      -0.08999737      -0.73429190      -0.08514706
Te       6.77566600      16.43093000      13.42564000      -0.12592520       0.00023965      -0.10994090
Te       6.77335700      19.97246000      16.76220000      -0.40352560      -0.51959300      -1.05736000
Te       9.62039200       6.57430100       6.70565600       0.18274570       0.11946990      -0.45040750
Te       9.35003200       9.71838200       9.90888400       1.08641900       1.10207300      -0.09241790