 Job started on host 2013-20140710BT
 at Wed Apr 22 12:04:23 2020

 +-------------------------------------------------+
 |                                                 |
 |      CCC   AA    SSS  TTTTT  EEEEE  PPPP        |
 |     C     A  A  S       T    E      P   P       |
 |     C     AAAA   SS     T    EEE    PPPP        |
 |     C     A  A     S    T    E      P           |
 |      CCC  A  A  SSS     T    EEEEE  P           |
 |                                                 |
 +-------------------------------------------------+
 |                                                 |
 | Materials Studio CASTEP version 2017            |
 | Ab Initio Total Energy Program                  |
 |                                                 |
 | Authors:                                        |
 | M. Segall, M. Probert, C. Pickard, P. Hasnip,   |
 | S. Clark, K. Refson, J. R. Yates, M. Payne      |
 |                                                 |
 | Contributors:                                   |
 | P. Lindan, P. Haynes, J. White, V. Milman,      |
 | N. Govind, M. Gibson, P. Tulip, V. Cocula,      |
 | B. Montanari, D. Quigley, M. Glover,            |
 | L. Bernasconi, A. Perlov, M. Plummer,           |
 | E. McNellis, J. Meyer, J. Gale, D. Jochym       |
 | J. Aarons, B. Walker, R. Gillen, D. Jones       |
 | T. Green, I. J. Bush, C. J. Armstrong,          |
 | E. J. Higgins, E. L. Brown, M. S. McFly         |
 |                                                 |
 | Copyright (c) 2000 - 2016                       |
 |                                                 |
 | Please cite                                     |
 |                                                 |
 |     "First principles methods using CASTEP"     |
 |                                                 |
 |         Zeitschrift fuer Kristallographie       |
 |           220(5-6) pp. 567-570 (2005)           |
 |                                                 |
 | S. J. Clark, M. D. Segall, C. J. Pickard,       |
 | P. J. Hasnip, M. J. Probert, K. Refson,         |
 | M. C. Payne                                     |
 |                                                 |
 |       in all publications arising from          |
 |              your use of CASTEP                 |
 |                                                 |
 +-------------------------------------------------+
 
 
 This version was compiled for x86_64-windows-msvc2008 on May 05 2016
 Intel(R) Math Kernel Library Version 11.1.2 
 Fundamental constants values: CODATA 2010
 
License checkout of MS_castep successful
 
 
 Pseudo atomic calculation performed for C 2s2 2p2
 
 Converged in 17 iterations to a total energy of -145.7157 eV
 
 Calculation parallelised over 7 processes.
 Data is distributed by k-point(7-way)

 ************************************ Title ************************************
 CASTEP calculation from Materials Studio

 ***************************** General Parameters ******************************
  
 output verbosity                               : normal  (1)
 write checkpoint data to                       : 01.check
 type of calculation                            : single point energy
 stress calculation                             : off
 density difference calculation                 : off
 electron localisation func (ELF) calculation   : off
 Hirshfeld analysis                             : on
 unlimited duration calculation
 timing information                             : on
 memory usage estimate                          : on
 write final potential to formatted file        : off
 write final density to formatted file          : off
 write BibTeX reference list                    : on
 write OTFG pseudopotential files               : on
 checkpoint writing                             : both castep_bin and check files
  
 output         length unit                     : A
 output           mass unit                     : amu
 output           time unit                     : ps
 output         charge unit                     : e
 output           spin unit                     : hbar/2
 output         energy unit                     : eV
 output          force unit                     : eV/A
 output       velocity unit                     : A/ps
 output       pressure unit                     : GPa
 output     inv_length unit                     : 1/A
 output      frequency unit                     : cm-1
 output force constant unit                     : eV/A**2
 output         volume unit                     : A**3
 output   IR intensity unit                     : (D/A)**2/amu
 output         dipole unit                     : D
 output         efield unit                     : eV/A/e
 output        entropy unit                     : J/mol/K
  
 wavefunctions paging                           : none
 random number generator seed                   : randomised (120423634)
 data distribution                              : optimal for this architecture
 optimization strategy                          : balance speed and memory

 *********************** Exchange-Correlation Parameters ***********************
  
 using functional                               : Perdew Burke Ernzerhof
 relativistic treatment                         : Koelling-Harmon
 DFT+D: Semi-empirical dispersion correction    : off

 ************************* Pseudopotential Parameters **************************
  
 pseudopotential representation                 : reciprocal space
 <beta|phi> representation                      : reciprocal space
 spin-orbit coupling                            : off

 **************************** Basis Set Parameters *****************************
  
 plane wave basis set cut-off                   :   750.0000   eV
 size of standard grid                          :     1.5000
 size of   fine   gmax                          :    21.0456   1/A
 largest prime factor in FFT                    :          5
 finite basis set correction                    : none

 **************************** Electronic Parameters ****************************
  
 number of  electrons                           :  256.0    
 net charge of system                           :  0.000    
 treating system as non-spin-polarized
 number of bands                                :        128

 ********************* Electronic Minimization Parameters **********************
  
 Method: Treating system as non-metallic,
         and number of  SD  steps               :          1
         and number of  CG  steps               :          4
  
 total energy / atom convergence tol.           : 0.2000E-05   eV
 eigen-energy convergence tolerance             : 0.1000E-05   eV
 max force / atom convergence tol.              : ignored
 convergence tolerance window                   :          3   cycles
 max. number of SCF cycles                      :        100
 periodic dipole correction                     : NONE

 ************************** Density Mixing Parameters **************************
  
 density-mixing scheme                          : Pulay
 max. length of mixing history                  :         20
 charge density mixing amplitude                : 0.5000    
 cut-off energy for mixing                      :  750.0       eV
 charge density mixing g-vector                 :  1.500       1/A

 *********************** Population Analysis Parameters ************************
  
 Population analysis with cutoff                :  3.000       A

 *******************************************************************************
  
 
                           -------------------------------
                                      Unit Cell
                           -------------------------------
        Real Lattice(A)                      Reciprocal Lattice(1/A)
   7.1438500   0.0000000   0.0000000        0.8795237   0.0000000   0.0000000
   0.0000000   7.1438500   0.0000000        0.0000000   0.8795237   0.0000000
   0.0000000   0.0000000   7.1438500        0.0000000   0.0000000   0.8795237
 
                       Lattice parameters(A)       Cell Angles
                    a =    7.143850          alpha =   90.000000
                    b =    7.143850          beta  =   90.000000
                    c =    7.143850          gamma =   90.000000
 
                       Current cell volume =  364.583476       A**3
 
                           -------------------------------
                                     Cell Contents
                           -------------------------------
                         Total number of ions in cell =   64
                      Total number of species in cell =    1
                        Max number of any one species =   64
 
            xxxxxxxxxxxxxxxxxxxxxxxxxxxxxxxxxxxxxxxxxxxxxxxxxxxxxxxxxxxx
            x  Element    Atom        Fractional coordinates of atoms  x
            x            Number           u          v          w      x
            x----------------------------------------------------------x
            x  C            1         0.002666   0.001475   0.000207   x 
            x  C            2         0.002732   0.250333   0.250337   x 
            x  C            3         0.250087   0.001064   0.252748   x 
            x  C            4         0.251383   0.252276   0.001391   x 
            x  C            5         0.377415   0.125683   0.375063   x 
            x  C            6         0.125680   0.127476   0.125151   x 
            x  C            7         0.127336   0.376995   0.375394   x 
            x  C            8         0.377278   0.376059   0.127501   x 
            x  C            9         0.501761   0.000697   0.001304   x 
            x  C           10         0.500006   0.250708   0.251570   x 
            x  C           11         0.751063   0.002148   0.251384   x 
            x  C           12         0.752532   0.250140   0.000190   x 
            x  C           13         0.876905   0.126919   0.377513   x 
            x  C           14         0.626060   0.126737   0.125808   x 
            x  C           15         0.626769   0.377090   0.375753   x 
            x  C           16         0.875681   0.377736   0.126664   x 
            x  C           17         0.001600   0.501075   0.001332   x 
            x  C           18         0.002748   0.750728   0.251031   x 
            x  C           19         0.252379   0.502457   0.251835   x 
            x  C           20         0.250794   0.752257   0.002627   x 
            x  C           21         0.376911   0.626291   0.376737   x 
            x  C           22         0.126003   0.625255   0.125792   x 
            x  C           23         0.127763   0.876580   0.375574   x 
            x  C           24         0.375235   0.875525   0.126229   x 
            x  C           25         0.500701   0.501489   0.000076   x 
            x  C           26         0.502271   0.750994   0.252453   x 
            x  C           27         0.750236   0.500881   0.251708   x 
            x  C           28         0.751487   0.752035   0.000570   x 
            x  C           29         0.877241   0.626444   0.376456   x 
            x  C           30         0.627068   0.627213   0.125151   x 
            x  C           31         0.625397   0.875573   0.377414   x 
            x  C           32         0.876226   0.876899   0.126240   x 
            x  C           33         0.000981   0.000147   0.501534   x 
            x  C           34         0.001340   0.252243   0.751587   x 
            x  C           35         0.251644   0.001900   0.751905   x 
            x  C           36         0.250408   0.252648   0.501040   x 
            x  C           37         0.377535   0.125256   0.875219   x 
            x  C           38         0.126792   0.127543   0.626278   x 
            x  C           39         0.125456   0.376428   0.875134   x 
            x  C           40         0.376584   0.376722   0.627067   x 
            x  C           41         0.502608   0.000885   0.500106   x 
            x  C           42         0.502192   0.250217   0.752672   x 
            x  C           43         0.751920   0.002381   0.752078   x 
            x  C           44         0.751305   0.250405   0.502625   x 
            x  C           45         0.875729   0.126037   0.876437   x 
            x  C           46         0.626594   0.126742   0.625674   x 
            x  C           47         0.625696   0.377793   0.875728   x 
            x  C           48         0.875894   0.376448   0.627125   x 
            x  C           49         0.002550   0.502773   0.502781   x 
            x  C           50         0.002478   0.750634   0.750999   x 
            x  C           51         0.252225   0.501114   0.752108   x 
            x  C           52         0.252592   0.751950   0.500308   x 
            x  C           53         0.375501   0.625181   0.876672   x 
            x  C           54         0.126449   0.627093   0.626205   x 
            x  C           55         0.126755   0.876177   0.877046   x 
            x  C           56         0.377557   0.877271   0.625731   x 
            x  C           57         0.501859   0.501063   0.500265   x 
            x  C           58         0.501090   0.750893   0.751263   x 
            x  C           59         0.752072   0.502761   0.751792   x 
            x  C           60         0.752289   0.752011   0.500370   x 
            x  C           61         0.876681   0.626157   0.876268   x 
            x  C           62         0.625238   0.625276   0.626826   x 
            x  C           63         0.627582   0.877057   0.877315   x 
            x  C           64         0.875150   0.876784   0.625862   x 
            xxxxxxxxxxxxxxxxxxxxxxxxxxxxxxxxxxxxxxxxxxxxxxxxxxxxxxxxxxxx
 
 
                         No user defined ionic velocities
 
                           -------------------------------
                                   Details of Species
                           -------------------------------
 
                               Mass of species in AMU
                                    C   12.0109997
 
                          Electric Quadrupole Moment (Barn)
                                    C    0.0332700 Isotope 11
 
                          Files used for pseudopotentials:
                                    C C_00PBE_OP.recpot
 
                           -------------------------------
                              k-Points For BZ Sampling
                           -------------------------------
                       MP grid size for SCF calculation is  5  5  5
                            with an offset of   0.000  0.000  0.000
                       Number of kpoints used =            63
 
                           -------------------------------
                               Symmetry and Constraints
                           -------------------------------
 
                      Maximum deviation from symmetry =  0.00000         ANG
 
         There are no symmetry operations specified or generated for this cell
         There are no ionic constraints specified or generated for this cell
                      Point group of crystal =     1: C1, 1, 1
                      Space group of crystal =     1: P1, P 1
 
 
                         Centre of mass is NOT constrained
 
                         Number of cell constraints= 0
                         Cell constraints are:  1 2 3 4 5 6
 
                         External pressure/stress (GPa)
                          0.00000   0.00000   0.00000
                                    0.00000   0.00000
                                              0.00000
  
+---------------- MEMORY AND SCRATCH DISK ESTIMATES PER PROCESS --------------+
|                                                     Memory          Disk    |
| Baseline code, static data and system overhead        0.0 MB         0.0 MB |
| BLAS internal memory storage                          0.0 MB         0.0 MB |
| Model and support data                              452.5 MB         0.0 MB |
| Electronic energy minimisation requirements         671.7 MB         0.0 MB |
| Force calculation requirements                       12.7 MB         0.0 MB |
|                                               ----------------------------- |
| Approx. total storage required per process         1124.1 MB         0.0 MB |
|                                                                             |
| Requirements will fluctuate during execution and may exceed these estimates |
+-----------------------------------------------------------------------------+
------------------------------------------------------------------------ <-- SCF
SCF loop      Energy                           Energy gain       Timer   <-- SCF
                                               per atom          (sec)   <-- SCF
------------------------------------------------------------------------ <-- SCF
Initial  -2.57558881E+003                                         14.38  <-- SCF
      1  -9.17226767E+003                    1.03073107E+002     227.06  <-- SCF
      2  -9.89655054E+003                    1.13169198E+001     411.97  <-- SCF
      3  -9.92023500E+003                    3.70069796E-001     568.36  <-- SCF
      4  -9.90602639E+003                   -2.22009523E-001     762.53  <-- SCF
      5  -9.90195756E+003                   -6.35755120E-002     945.49  <-- SCF
      6  -9.90205592E+003                    1.53691486E-003    1172.04  <-- SCF
      7  -9.90205587E+003                   -8.36604425E-007    1353.01  <-- SCF
      8  -9.90205591E+003                    6.32503721E-007    1477.08  <-- SCF
------------------------------------------------------------------------ <-- SCF
 
Final energy =  -9902.055910099     eV
(energy not corrected for finite basis set)
 

Writing analysis data to 01.castep_bin

Writing model to 01.check
 
 *********************** Forces ***********************
 *                                                    *
 *            Cartesian components (eV/A)             *
 * -------------------------------------------------- *
 *                   x            y            z      *
 *                                                    *
 * C         1     -0.45980      0.01096      0.26553 *
 * C         2     -0.48880      0.61172      0.30275 *
 * C         3      0.41194      0.22137     -0.68006 *
 * C         4      0.11280     -0.24181     -0.12961 *
 * C         5     -0.43906      0.15733      0.43488 *
 * C         6      0.32074     -0.34087      0.20058 *
 * C         7     -0.14733      0.00426      0.25814 *
 * C         8     -0.31100      0.20581     -0.38123 *
 * C         9     -0.14871      0.05109      0.10354 *
 * C        10      0.56115      0.18569     -0.21237 *
 * C        11      0.04104     -0.14474      0.07575 *
 * C        12     -0.47855      0.62196      0.38248 *
 * C        13     -0.04559     -0.26000     -0.33723 *
 * C        14      0.06363     -0.10605      0.11296 *
 * C        15     -0.22025     -0.44983      0.22934 *
 * C        16      0.23615     -0.63290     -0.13879 *
 * C        17     -0.18338      0.07715     -0.03231 *
 * C        18     -0.36009      0.11574     -0.05146 *
 * C        19     -0.12632     -0.30682     -0.19995 *
 * C        20      0.07714     -0.50882     -0.34539 *
 * C        21      0.06293      0.05804     -0.12973 *
 * C        22      0.23332      0.32255      0.17257 *
 * C        23     -0.41359     -0.18292      0.26860 *
 * C        24      0.31758      0.21897      0.31721 *
 * C        25      0.24494     -0.01777      0.48033 *
 * C        26     -0.28968      0.03884     -0.42319 *
 * C        27      0.44293      0.26688     -0.23153 *
 * C        28      0.23252     -0.05528      0.22666 *
 * C        29     -0.09745      0.05966      0.02147 *
 * C        30     -0.24762     -0.16942      0.25953 *
 * C        31      0.52638      0.22307     -0.45992 *
 * C        32      0.24738     -0.06277      0.03034 *
 * C        33      0.21876      0.38696      0.01426 *
 * C        34     -0.12153     -0.23479     -0.12076 *
 * C        35      0.11446     -0.09096     -0.32964 *
 * C        36      0.50521     -0.30113      0.04896 *
 * C        37     -0.22054      0.28072      0.51858 *
 * C        38     -0.22448     -0.29088      0.02383 *
 * C        39      0.32231      0.02110      0.41225 *
 * C        40      0.02472     -0.23982     -0.20895 *
 * C        41     -0.25785      0.20343      0.37258 *
 * C        42     -0.17705      0.38387     -0.61324 *
 * C        43     -0.19777     -0.28808     -0.30445 *
 * C        44      0.15157      0.53680     -0.35152 *
 * C        45      0.47969      0.14470     -0.15816 *
 * C        46      0.03067     -0.16675      0.28333 *
 * C        47      0.37544     -0.49018      0.15631 *
 * C        48      0.20208      0.17084     -0.06586 *
 * C        49     -0.35144     -0.45995     -0.49312 *
 * C        50     -0.30706      0.31377      0.09962 *
 * C        51     -0.33433      0.13434     -0.29362 *
 * C        52     -0.09357     -0.02251      0.30931 *
 * C        53      0.07488      0.49435      0.03040 *
 * C        54      0.38489     -0.03976      0.06497 *
 * C        55      0.02170      0.08848     -0.28666 *
 * C        56     -0.25371     -0.19801      0.12674 *
 * C        57     -0.10416     -0.03423      0.46213 *
 * C        58      0.09979      0.14275      0.08327 *
 * C        59     -0.35286     -0.39172     -0.15224 *
 * C        60     -0.40334     -0.26960      0.37520 *
 * C        61      0.09853      0.22271      0.00347 *
 * C        62      0.49522      0.42550     -0.25951 *
 * C        63     -0.34425     -0.25462     -0.37266 *
 * C        64      0.46868     -0.14842      0.23525 *
 *                                                    *
 ******************************************************
 
 Pseudo atomic calculation performed for C 2s2 2p2
 
 Converged in 17 iterations to a total energy of -145.7157 eV
 
Charge spilling parameter for spin component 1 = 0.39%
 
     Atomic Populations (Mulliken)
     -----------------------------
Species   Ion     s      p      d      f     Total  Charge (e)
==============================================================
  C        1     1.07   2.93   0.00   0.00   4.00     0.00
  C        2     1.07   2.93   0.00   0.00   4.00    -0.00
  C        3     1.07   2.93   0.00   0.00   4.00     0.00
  C        4     1.08   2.92   0.00   0.00   4.00     0.00
  C        5     1.07   2.93   0.00   0.00   4.00     0.00
  C        6     1.07   2.93   0.00   0.00   4.00    -0.00
  C        7     1.07   2.93   0.00   0.00   4.00     0.00
  C        8     1.07   2.93   0.00   0.00   4.00    -0.00
  C        9     1.07   2.93   0.00   0.00   4.00    -0.00
  C       10     1.07   2.93   0.00   0.00   4.00    -0.00
  C       11     1.08   2.92   0.00   0.00   4.00     0.00
  C       12     1.08   2.93   0.00   0.00   4.00    -0.00
  C       13     1.08   2.93   0.00   0.00   4.00    -0.00
  C       14     1.07   2.93   0.00   0.00   4.00    -0.00
  C       15     1.07   2.93   0.00   0.00   4.00     0.00
  C       16     1.08   2.92   0.00   0.00   4.00     0.00
  C       17     1.07   2.93   0.00   0.00   4.00    -0.00
  C       18     1.07   2.92   0.00   0.00   4.00     0.00
  C       19     1.07   2.93   0.00   0.00   4.00     0.00
  C       20     1.07   2.93   0.00   0.00   4.00     0.00
  C       21     1.07   2.93   0.00   0.00   4.00    -0.00
  C       22     1.07   2.93   0.00   0.00   4.00    -0.00
  C       23     1.07   2.93   0.00   0.00   4.00    -0.00
  C       24     1.08   2.92   0.00   0.00   4.00     0.00
  C       25     1.07   2.93   0.00   0.00   4.00    -0.00
  C       26     1.07   2.93   0.00   0.00   4.00     0.00
  C       27     1.07   2.93   0.00   0.00   4.00    -0.00
  C       28     1.07   2.93   0.00   0.00   4.00    -0.00
  C       29     1.07   2.92   0.00   0.00   4.00     0.00
  C       30     1.08   2.92   0.00   0.00   4.00     0.00
  C       31     1.07   2.93   0.00   0.00   4.00    -0.00
  C       32     1.08   2.92   0.00   0.00   4.00     0.00
  C       33     1.08   2.92   0.00   0.00   4.00     0.00
  C       34     1.07   2.93   0.00   0.00   4.00     0.00
  C       35     1.07   2.93   0.00   0.00   4.00     0.00
  C       36     1.08   2.92   0.00   0.00   4.00    -0.00
  C       37     1.07   2.93   0.00   0.00   4.00    -0.00
  C       38     1.08   2.92   0.00   0.00   4.00    -0.00
  C       39     1.07   2.93   0.00   0.00   4.00    -0.00
  C       40     1.08   2.92   0.00   0.00   4.00     0.00
  C       41     1.07   2.93   0.00   0.00   4.00    -0.00
  C       42     1.07   2.93   0.00   0.00   4.00    -0.00
  C       43     1.07   2.93   0.00   0.00   4.00     0.00
  C       44     1.07   2.93   0.00   0.00   4.00    -0.00
  C       45     1.07   2.93   0.00   0.00   4.00    -0.00
  C       46     1.07   2.93   0.00   0.00   4.00     0.00
  C       47     1.07   2.93   0.00   0.00   4.00     0.00
  C       48     1.07   2.93   0.00   0.00   4.00     0.00
  C       49     1.07   2.93   0.00   0.00   4.00     0.00
  C       50     1.07   2.92   0.00   0.00   4.00     0.00
  C       51     1.07   2.93   0.00   0.00   4.00    -0.00
  C       52     1.07   2.93   0.00   0.00   4.00     0.00
  C       53     1.07   2.93   0.00   0.00   4.00     0.00
  C       54     1.07   2.93   0.00   0.00   4.00    -0.00
  C       55     1.07   2.93   0.00   0.00   4.00    -0.00
  C       56     1.07   2.92   0.00   0.00   4.00     0.00
  C       57     1.07   2.93   0.00   0.00   4.00    -0.00
  C       58     1.08   2.92   0.00   0.00   4.00    -0.00
  C       59     1.07   2.93   0.00   0.00   4.00    -0.00
  C       60     1.07   2.93   0.00   0.00   4.00     0.00
  C       61     1.07   2.93   0.00   0.00   4.00     0.00
  C       62     1.08   2.92   0.00   0.00   4.00     0.00
  C       63     1.07   2.93   0.00   0.00   4.00     0.00
  C       64     1.07   2.93   0.00   0.00   4.00    -0.00
==============================================================
 
            Bond              Population      Length (A)
============================================================
         C 3  -- C 23              0.84        1.52460
         C 31 -- C 41              0.83        1.52941
         C 2  -- C 6               0.83        1.53021
         C 12 -- C 45              0.84        1.53042
         C 5  -- C 10              0.83        1.53069
         C 15 -- C 27              0.83        1.53144
         C 20 -- C 24              0.83        1.53149
         C 44 -- C 46              0.83        1.53196
         C 49 -- C 54              0.83        1.53285
         C 43 -- C 45              0.83        1.53359
         C 34 -- C 39              0.83        1.53369
         C 51 -- C 53              0.83        1.53395
         C 8  -- C 10              0.83        1.53498
         C 37 -- C 42              0.83        1.53505
         C 28 -- C 63              0.83        1.53509
         C 25 -- C 53              0.83        1.53557
         C 50 -- C 54              0.83        1.53559
         C 59 -- C 61              0.83        1.53631
         C 1  -- C 55              0.83        1.53661
         C 35 -- C 37              0.83        1.53670
         C 26 -- C 31              0.83        1.53709
         C 25 -- C 47              0.83        1.53861
         C 17 -- C 22              0.83        1.53862
         C 7  -- C 36              0.83        1.53876
         C 60 -- C 64              0.83        1.53902
         C 19 -- C 21              0.82        1.53956
         C 15 -- C 57              0.82        1.54008
         C 31 -- C 60              0.82        1.54028
         C 9  -- C 63              0.82        1.54034
         C 33 -- C 64              0.82        1.54064
         C 20 -- C 55              0.82        1.54070
         C 21 -- C 52              0.82        1.54074
         C 16 -- C 27              0.82        1.54110
         C 21 -- C 57              0.82        1.54137
         C 40 -- C 51              0.83        1.54171
         C 28 -- C 30              0.83        1.54183
         C 36 -- C 38              0.83        1.54242
         C 1  -- C 6               0.82        1.54247
         C 18 -- C 22              0.82        1.54248
         C 7  -- C 19              0.82        1.54286
         C 34 -- C 48              0.82        1.54304
         C 57 -- C 62              0.82        1.54329
         C 42 -- C 47              0.82        1.54333
         C 23 -- C 52              0.82        1.54336
         C 58 -- C 62              0.83        1.54342
         C 13 -- C 44              0.82        1.54342
         C 4  -- C 6               0.82        1.54368
         C 41 -- C 56              0.82        1.54380
         C 3  -- C 5               0.82        1.54385
         C 21 -- C 26              0.82        1.54401
         C 59 -- C 62              0.82        1.54402
         C 29 -- C 60              0.82        1.54437
         C 39 -- C 51              0.82        1.54466
         C 16 -- C 17              0.82        1.54506
         C 17 -- C 39              0.82        1.54550
         C 48 -- C 59              0.82        1.54593
         C 9  -- C 14              0.82        1.54607
         C 9  -- C 37              0.82        1.54619
         C 13 -- C 33              0.82        1.54623
         C 43 -- C 63              0.82        1.54628
         C 42 -- C 46              0.82        1.54628
         C 20 -- C 22              0.82        1.54664
         C 5  -- C 41              0.82        1.54683
         C 43 -- C 64              0.82        1.54695
         C 17 -- C 61              0.82        1.54696
         C 44 -- C 48              0.82        1.54726
         C 11 -- C 14              0.82        1.54739
         C 18 -- C 29              0.82        1.54760
         C 19 -- C 22              0.82        1.54771
         C 28 -- C 32              0.82        1.54782
         C 1  -- C 45              0.82        1.54789
         C 47 -- C 59              0.82        1.54789
         C 29 -- C 49              0.82        1.54801
         C 28 -- C 61              0.82        1.54825
         C 18 -- C 23              0.82        1.54839
         C 41 -- C 46              0.82        1.54842
         C 56 -- C 58              0.82        1.54859
         C 34 -- C 38              0.82        1.54860
         C 12 -- C 14              0.82        1.54880
         C 50 -- C 61              0.82        1.54894
         C 11 -- C 32              0.83        1.54898
         C 8  -- C 19              0.82        1.54933
         C 52 -- C 56              0.82        1.54962
         C 35 -- C 55              0.82        1.54980
         C 10 -- C 14              0.82        1.54998
         C 4  -- C 8               0.82        1.54999
         C 50 -- C 55              0.82        1.55029
         C 26 -- C 30              0.82        1.55043
         C 27 -- C 30              0.82        1.55117
         C 43 -- C 46              0.81        1.55122
         C 35 -- C 38              0.82        1.55132
         C 36 -- C 40              0.82        1.55200
         C 8  -- C 25              0.82        1.55209
         C 23 -- C 33              0.82        1.55218
         C 2  -- C 7               0.82        1.55218
         C 4  -- C 39              0.82        1.55224
         C 40 -- C 57              0.82        1.55259
         C 2  -- C 13              0.82        1.55265
         C 9  -- C 24              0.82        1.55341
         C 34 -- C 45              0.81        1.55358
         C 53 -- C 58              0.82        1.55374
         C 35 -- C 56              0.82        1.55379
         C 11 -- C 13              0.82        1.55389
         C 52 -- C 54              0.82        1.55453
         C 1  -- C 32              0.81        1.55517
         C 25 -- C 30              0.81        1.55564
         C 3  -- C 24              0.81        1.55580
         C 12 -- C 16              0.81        1.55602
         C 27 -- C 29              0.82        1.55628
         C 48 -- C 49              0.82        1.55633
         C 10 -- C 15              0.81        1.55635
         C 18 -- C 32              0.82        1.55696
         C 51 -- C 54              0.81        1.55765
         C 40 -- C 42              0.81        1.55791
         C 20 -- C 53              0.81        1.55803
         C 24 -- C 26              0.81        1.55825
         C 7  -- C 49              0.81        1.55892
         C 33 -- C 38              0.81        1.55892
         C 15 -- C 44              0.81        1.55950
         C 2  -- C 16              0.81        1.55973
         C 11 -- C 31              0.81        1.56019
         C 3  -- C 6               0.81        1.56086
         C 50 -- C 64              0.81        1.56164
         C 58 -- C 63              0.81        1.56198
         C 12 -- C 47              0.81        1.56307
         C 4  -- C 37              0.81        1.56461
         C 5  -- C 36              0.81        1.56711
         C 60 -- C 62              0.80        1.56831
         C 12 -- C 43             -0.14        2.50488
         C 49 -- C 50             -0.14        2.50593
         C 31 -- C 56             -0.14        2.50635
         C 47 -- C 62             -0.15        2.50748
         C 25 -- C 51             -0.14        2.50777
         C 18 -- C 20             -0.14        2.50782
         C 2  -- C 3              -0.14        2.50876
         C 3  -- C 52             -0.14        2.50901
         C 23 -- C 24             -0.14        2.50968
         C 33 -- C 60             -0.14        2.50972
         C 27 -- C 57             -0.14        2.51025
         C 45 -- C 63             -0.14        2.51123
         C 11 -- C 41             -0.14        2.51149
         C 40 -- C 62             -0.14        2.51163
         C 1  -- C 35             -0.14        2.51200
         C 1  -- C 20             -0.14        2.51239
         C 12 -- C 34             -0.14        2.51270
         C 37 -- C 56             -0.14        2.51298
         C 43 -- C 44             -0.14        2.51300
         C 26 -- C 52             -0.14        2.51330
         C 26 -- C 41             -0.14        2.51335
         C 42 -- C 43             -0.14        2.51345
         C 32 -- C 63             -0.14        2.51345
         C 39 -- C 48             -0.14        2.51347
         C 47 -- C 53             -0.14        2.51357
         C 2  -- C 4              -0.14        2.51363
         C 24 -- C 55             -0.14        2.51393
         C 30 -- C 63             -0.14        2.51404
         C 3  -- C 18             -0.14        2.51406
         C 38 -- C 39             -0.14        2.51434
         C 8  -- C 15             -0.14        2.51435
         C 26 -- C 57             -0.14        2.51436
         C 21 -- C 31             -0.14        2.51447
         C 40 -- C 47             -0.14        2.51450
         C 7  -- C 8              -0.14        2.51483
         C 16 -- C 22             -0.14        2.51487
         C 12 -- C 42             -0.14        2.51495
         C 7  -- C 22             -0.14        2.51496
         C 3  -- C 33             -0.14        2.51509
         C 5  -- C 14             -0.14        2.51514
         C 18 -- C 19             -0.14        2.51515
         C 19 -- C 57             -0.14        2.51520
         C 26 -- C 60             -0.14        2.51533
         C 5  -- C 8              -0.14        2.51536
         C 19 -- C 52             -0.14        2.51546
         C 36 -- C 49             -0.14        2.51560
         C 15 -- C 16             -0.14        2.51564
         C 28 -- C 59             -0.14        2.51590
         C 40 -- C 53             -0.14        2.51597
         C 26 -- C 27             -0.14        2.51605
         C 16 -- C 30             -0.14        2.51611
         C 5  -- C 31             -0.14        2.51617
         C 8  -- C 14             -0.14        2.51619
         C 4  -- C 51             -0.14        2.51625
         C 9  -- C 42             -0.14        2.51640
         C 14 -- C 63             -0.14        2.51653
         C 31 -- C 64             -0.14        2.51667
         C 25 -- C 58             -0.14        2.51673
         C 41 -- C 44             -0.14        2.51679
         C 37 -- C 63             -0.14        2.51693
         C 50 -- C 59             -0.14        2.51708
         C 10 -- C 41             -0.14        2.51752
         C 9  -- C 28             -0.14        2.51760
         C 2  -- C 36             -0.14        2.51764
         C 21 -- C 62             -0.14        2.51776
         C 19 -- C 26             -0.14        2.51781
         C 13 -- C 46             -0.14        2.51804
         C 13 -- C 64             -0.14        2.51812
         C 30 -- C 61             -0.14        2.51815
         C 16 -- C 29             -0.14        2.51819
         C 39 -- C 61             -0.14        2.51819
         C 46 -- C 56             -0.14        2.51820
         C 46 -- C 64             -0.14        2.51824
         C 4  -- C 25             -0.14        2.51833
         C 41 -- C 60             -0.14        2.51844
         C 17 -- C 34             -0.14        2.51855
         C 4  -- C 17             -0.14        2.51857
         C 37 -- C 46             -0.14        2.51870
         C 22 -- C 53             -0.14        2.51875
         C 51 -- C 58             -0.14        2.51889
         C 13 -- C 38             -0.14        2.51893
         C 6  -- C 45             -0.14        2.51902
         C 25 -- C 42             -0.14        2.51914
         C 5  -- C 23             -0.14        2.51945
         C 1  -- C 12             -0.14        2.51968
         C 39 -- C 53             -0.14        2.51969
         C 47 -- C 48             -0.14        2.51971
         C 4  -- C 10             -0.14        2.51972
         C 16 -- C 61             -0.14        2.51979
         C 28 -- C 43             -0.14        2.51988
         C 30 -- C 32             -0.14        2.51991
         C 30 -- C 47             -0.14        2.51991
         C 22 -- C 61             -0.14        2.51991
         C 48 -- C 61             -0.14        2.51994
         C 35 -- C 42             -0.14        2.52003
         C 7  -- C 21             -0.14        2.52005
         C 1  -- C 43             -0.14        2.52009
         C 3  -- C 20             -0.14        2.52033
         C 32 -- C 45             -0.14        2.52039
         C 41 -- C 52             -0.14        2.52044
         C 29 -- C 54             -0.14        2.52047
         C 6  -- C 39             -0.14        2.52053
         C 38 -- C 40             -0.14        2.52054
         C 33 -- C 50             -0.14        2.52059
         C 1  -- C 2              -0.14        2.52063
         C 5  -- C 24             -0.14        2.52070
         C 34 -- C 44             -0.14        2.52071
         C 49 -- C 51             -0.14        2.52072
         C 46 -- C 48             -0.14        2.52073
         C 19 -- C 20             -0.14        2.52075
         C 19 -- C 36             -0.14        2.52079
         C 63 -- C 64             -0.14        2.52086
         C 14 -- C 45             -0.14        2.52089
         C 10 -- C 57             -0.14        2.52098
         C 15 -- C 21             -0.14        2.52099
         C 17 -- C 59             -0.14        2.52105
         C 10 -- C 36             -0.14        2.52106
         C 5  -- C 56             -0.14        2.52111
         C 14 -- C 37             -0.14        2.52130
         C 58 -- C 59             -0.14        2.52130
         C 18 -- C 52             -0.14        2.52131
         C 11 -- C 60             -0.14        2.52132
         C 13 -- C 48             -0.14        2.52140
         C 42 -- C 44             -0.14        2.52149
         C 11 -- C 12             -0.14        2.52169
         C 39 -- C 40             -0.14        2.52171
         C 49 -- C 52             -0.14        2.52185
         C 50 -- C 51             -0.14        2.52204
         C 15 -- C 62             -0.14        2.52206
         C 34 -- C 43             -0.14        2.52211
         C 34 -- C 49             -0.14        2.52241
         C 17 -- C 18             -0.14        2.52247
         C 47 -- C 61             -0.14        2.52248
         C 9  -- C 11             -0.14        2.52263
         C 9  -- C 43             -0.14        2.52266
         C 10 -- C 19             -0.14        2.52267
         C 1  -- C 34             -0.14        2.52268
         C 6  -- C 55             -0.14        2.52278
         C 9  -- C 20             -0.14        2.52279
         C 22 -- C 29             -0.14        2.52287
         C 31 -- C 46             -0.14        2.52291
         C 21 -- C 23             -0.14        2.52291
         C 52 -- C 58             -0.14        2.52301
         C 8  -- C 21             -0.14        2.52305
         C 48 -- C 62             -0.14        2.52314
         C 22 -- C 39             -0.14        2.52315
         C 49 -- C 59             -0.14        2.52316
         C 22 -- C 24             -0.14        2.52322
         C 11 -- C 44             -0.14        2.52324
         C 49 -- C 60             -0.14        2.52327
         C 9  -- C 35             -0.14        2.52330
         C 1  -- C 4              -0.14        2.52333
         C 53 -- C 54             -0.14        2.52335
         C 4  -- C 42             -0.14        2.52341
         C 7  -- C 29             -0.14        2.52344
         C 36 -- C 51             -0.14        2.52345
         C 3  -- C 10             -0.14        2.52354
         C 53 -- C 62             -0.14        2.52363
         C 39 -- C 54             -0.14        2.52371
         C 33 -- C 43             -0.14        2.52380
         C 34 -- C 36             -0.14        2.52380
         C 10 -- C 11             -0.14        2.52383
         C 37 -- C 40             -0.14        2.52387
         C 25 -- C 59             -0.14        2.52405
         C 22 -- C 55             -0.14        2.52408
         C 56 -- C 62             -0.14        2.52420
         C 37 -- C 38             -0.14        2.52421
         C 28 -- C 58             -0.14        2.52426
         C 31 -- C 62             -0.14        2.52427
         C 18 -- C 49             -0.14        2.52432
         C 45 -- C 48             -0.14        2.52434
         C 32 -- C 55             -0.14        2.52435
         C 53 -- C 55             -0.14        2.52446
         C 21 -- C 24             -0.14        2.52447
         C 2  -- C 17             -0.14        2.52448
         C 29 -- C 64             -0.14        2.52450
         C 34 -- C 51             -0.14        2.52452
         C 6  -- C 7              -0.14        2.52456
         C 34 -- C 59             -0.14        2.52466
         C 5  -- C 46             -0.14        2.52469
         C 18 -- C 60             -0.14        2.52473
         C 27 -- C 60             -0.14        2.52476
         C 38 -- C 48             -0.14        2.52476
         C 33 -- C 52             -0.14        2.52484
         C 15 -- C 29             -0.14        2.52486
         C 45 -- C 64             -0.14        2.52488
         C 54 -- C 61             -0.14        2.52489
         C 9  -- C 58             -0.14        2.52495
         C 4  -- C 34             -0.14        2.52496
         C 17 -- C 51             -0.14        2.52498
         C 4  -- C 35             -0.14        2.52504
         C 2  -- C 11             -0.14        2.52507
         C 37 -- C 55             -0.14        2.52507
         C 36 -- C 57             -0.14        2.52511
         C 3  -- C 36             -0.14        2.52516
         C 17 -- C 50             -0.14        2.52520
         C 21 -- C 40             -0.14        2.52523
         C 45 -- C 46             -0.14        2.52524
         C 24 -- C 53             -0.14        2.52524
         C 3  -- C 41             -0.14        2.52526
         C 54 -- C 55             -0.14        2.52537
         C 18 -- C 33             -0.14        2.52538
         C 21 -- C 54             -0.14        2.52539
         C 33 -- C 44             -0.14        2.52541
         C 23 -- C 56             -0.14        2.52549
         C 11 -- C 26             -0.14        2.52550
         C 8  -- C 53             -0.14        2.52553
         C 20 -- C 50             -0.14        2.52553
         C 21 -- C 56             -0.14        2.52563
         C 1  -- C 3              -0.14        2.52567
         C 40 -- C 46             -0.14        2.52570
         C 61 -- C 63             -0.14        2.52575
         C 14 -- C 32             -0.14        2.52576
         C 12 -- C 17             -0.14        2.52578
         C 6  -- C 32             -0.14        2.52591
         C 1  -- C 50             -0.14        2.52599
         C 30 -- C 53             -0.14        2.52605
         C 11 -- C 33             -0.14        2.52612
         C 19 -- C 25             -0.14        2.52621
         C 55 -- C 61             -0.14        2.52621
         C 44 -- C 57             -0.14        2.52632
         C 39 -- C 45             -0.14        2.52635
         C 23 -- C 54             -0.14        2.52635
         C 52 -- C 57             -0.14        2.52652
         C 24 -- C 30             -0.14        2.52654
         C 6  -- C 8              -0.14        2.52675
         C 8  -- C 47             -0.14        2.52678
         C 9  -- C 12             -0.14        2.52683
         C 6  -- C 16             -0.14        2.52706
         C 15 -- C 46             -0.14        2.52709
         C 9  -- C 10             -0.14        2.52716
         C 14 -- C 15             -0.14        2.52724
         C 13 -- C 15             -0.14        2.52731
         C 7  -- C 38             -0.14        2.52744
         C 2  -- C 12             -0.14        2.52749
         C 20 -- C 35             -0.14        2.52759
         C 17 -- C 20             -0.14        2.52767
         C 7  -- C 16             -0.14        2.52773
         C 10 -- C 27             -0.14        2.52777
         C 35 -- C 50             -0.14        2.52795
         C 35 -- C 58             -0.14        2.52804
         C 8  -- C 22             -0.14        2.52816
         C 15 -- C 48             -0.14        2.52827
         C 40 -- C 54             -0.14        2.52830
         C 7  -- C 13             -0.14        2.52834
         C 28 -- C 50             -0.14        2.52860
         C 1  -- C 28             -0.14        2.52888
         C 14 -- C 16             -0.14        2.52888
         C 4  -- C 19             -0.14        2.52890
         C 30 -- C 31             -0.14        2.52898
         C 34 -- C 35             -0.14        2.52900
         C 23 -- C 29             -0.14        2.52906
         C 29 -- C 48             -0.14        2.52911
         C 29 -- C 32             -0.14        2.52913
         C 59 -- C 60             -0.14        2.52915
         C 20 -- C 25             -0.14        2.52921
         C 32 -- C 61             -0.14        2.52934
         C 37 -- C 47             -0.14        2.52936
         C 15 -- C 30             -0.14        2.52940
         C 24 -- C 37             -0.14        2.52954
         C 5  -- C 15             -0.14        2.52960
         C 19 -- C 49             -0.14        2.52965
         C 50 -- C 52             -0.14        2.52982
         C 50 -- C 60             -0.14        2.52988
         C 57 -- C 58             -0.14        2.52993
         C 9  -- C 26             -0.14        2.53005
         C 42 -- C 51             -0.14        2.53010
         C 23 -- C 32             -0.14        2.53016
         C 45 -- C 55             -0.14        2.53022
         C 61 -- C 62             -0.14        2.53023
         C 7  -- C 54             -0.14        2.53033
         C 16 -- C 47             -0.14        2.53039
         C 7  -- C 40             -0.14        2.53042
         C 11 -- C 28             -0.14        2.53042
         C 8  -- C 30             -0.14        2.53057
         C 29 -- C 31             -0.14        2.53069
         C 54 -- C 64             -0.14        2.53075
         C 12 -- C 59             -0.14        2.53097
         C 61 -- C 64             -0.14        2.53097
         C 38 -- C 56             -0.14        2.53098
         C 33 -- C 35             -0.14        2.53099
         C 17 -- C 28             -0.14        2.53116
         C 46 -- C 47             -0.14        2.53133
         C 26 -- C 28             -0.14        2.53133
         C 22 -- C 23             -0.14        2.53137
         C 14 -- C 47             -0.14        2.53148
         C 6  -- C 13             -0.14        2.53154
         C 41 -- C 58             -0.14        2.53157
         C 25 -- C 27             -0.14        2.53165
         C 48 -- C 54             -0.14        2.53180
         C 13 -- C 23             -0.14        2.53182
         C 38 -- C 45             -0.14        2.53193
         C 24 -- C 63             -0.14        2.53219
         C 17 -- C 19             -0.14        2.53223
         C 54 -- C 56             -0.14        2.53224
         C 13 -- C 32             -0.14        2.53228
         C 41 -- C 43             -0.14        2.53228
         C 20 -- C 26             -0.14        2.53234
         C 16 -- C 39             -0.14        2.53236
         C 6  -- C 23             -0.14        2.53244
         C 46 -- C 63             -0.14        2.53246
         C 25 -- C 28             -0.14        2.53246
         C 24 -- C 31             -0.14        2.53254
         C 57 -- C 60             -0.14        2.53269
         C 2  -- C 33             -0.14        2.53275
         C 5  -- C 7              -0.14        2.53277
         C 27 -- C 44             -0.14        2.53278
         C 62 -- C 64             -0.14        2.53293
         C 22 -- C 32             -0.14        2.53293
         C 29 -- C 30             -0.14        2.53321
         C 51 -- C 57             -0.14        2.53322
         C 15 -- C 40             -0.14        2.53331
         C 6  -- C 24             -0.14        2.53338
         C 44 -- C 59             -0.14        2.53348
         C 35 -- C 52             -0.14        2.53357
         C 1  -- C 18             -0.14        2.53367
         C 56 -- C 63             -0.14        2.53387
         C 35 -- C 36             -0.14        2.53390
         C 5  -- C 6              -0.14        2.53410
         C 20 -- C 58             -0.14        2.53414
         C 20 -- C 51             -0.14        2.53415
         C 23 -- C 38             -0.14        2.53416
         C 13 -- C 16             -0.14        2.53416
         C 18 -- C 28             -0.14        2.53445
         C 17 -- C 27             -0.14        2.53453
         C 21 -- C 30             -0.14        2.53456
         C 57 -- C 59             -0.14        2.53456
         C 2  -- C 19             -0.14        2.53473
         C 45 -- C 47             -0.14        2.53479
         C 6  -- C 37             -0.14        2.53483
         C 5  -- C 38             -0.14        2.53505
         C 21 -- C 22             -0.14        2.53510
         C 25 -- C 26             -0.14        2.53531
         C 41 -- C 42             -0.14        2.53537
         C 16 -- C 45             -0.14        2.53547
         C 33 -- C 36             -0.14        2.53552
         C 4  -- C 9              -0.14        2.53563
         C 31 -- C 32             -0.14        2.53587
         C 14 -- C 24             -0.14        2.53602
         C 43 -- C 60             -0.14        2.53624
         C 58 -- C 60             -0.14        2.53631
         C 55 -- C 56             -0.14        2.53644
         C 38 -- C 55             -0.14        2.53651
         C 33 -- C 34             -0.14        2.53661
         C 3  -- C 26             -0.14        2.53714
         C 12 -- C 27             -0.14        2.53720
         C 10 -- C 25             -0.14        2.53723
         C 62 -- C 63             -0.14        2.53726
         C 27 -- C 28             -0.14        2.53733
         C 43 -- C 50             -0.14        2.53739
         C 43 -- C 58             -0.14        2.53745
         C 10 -- C 44             -0.14        2.53762
         C 18 -- C 27             -0.14        2.53769
         C 29 -- C 62             -0.14        2.53775
         C 38 -- C 64             -0.14        2.53787
         C 42 -- C 59             -0.14        2.53802
         C 13 -- C 14             -0.14        2.53862
         C 3  -- C 4              -0.14        2.53873
         C 51 -- C 52             -0.14        2.53905
         C 35 -- C 41             -0.14        2.53970
         C 14 -- C 31             -0.14        2.53973
         C 1  -- C 11             -0.14        2.53978
         C 55 -- C 64             -0.14        2.53983
         C 13 -- C 31             -0.14        2.54015
         C 23 -- C 64             -0.14        2.54041
         C 53 -- C 56             -0.14        2.54109
         C 5  -- C 40             -0.14        2.54112
         C 2  -- C 27             -0.14        2.54115
         C 8  -- C 37             -0.14        2.54133
         C 11 -- C 18             -0.14        2.54142
         C 3  -- C 9              -0.14        2.54148
         C 7  -- C 48             -0.14        2.54176
         C 12 -- C 25             -0.14        2.54180
         C 37 -- C 39             -0.14        2.54216
         C 42 -- C 57             -0.14        2.54218
         C 27 -- C 49             -0.14        2.54289
         C 36 -- C 42             -0.14        2.54305
         C 44 -- C 49             -0.14        2.54399
         C 2  -- C 44             -0.13        2.54450
         C 10 -- C 12             -0.13        2.54547
         C 53 -- C 63             -0.14        2.54573
         C 36 -- C 41             -0.13        2.54576
         C 8  -- C 39             -0.13        2.54690
         C 2  -- C 49             -0.13        2.55040
         C 31 -- C 52             -0.05        2.94001
         C 20 -- C 23             -0.05        2.94273
         C 39 -- C 49             -0.05        2.94302
         C 14 -- C 42             -0.05        2.94393
         C 18 -- C 24             -0.05        2.94459
         C 6  -- C 12             -0.05        2.94463
         C 12 -- C 63             -0.05        2.94463
         C 47 -- C 51             -0.05        2.94523
         C 41 -- C 64             -0.05        2.94551
         C 4  -- C 53             -0.05        2.94564
         C 19 -- C 24             -0.05        2.94592
         C 8  -- C 57             -0.05        2.94635
         C 8  -- C 27             -0.05        2.94640
         C 25 -- C 40             -0.05        2.94642
         C 44 -- C 64             -0.05        2.94650
         C 25 -- C 62             -0.05        2.94677
         C 7  -- C 10             -0.05        2.94690
         C 5  -- C 11             -0.05        2.94696
         C 47 -- C 58             -0.05        2.94741
         C 24 -- C 52             -0.05        2.94763
         C 51 -- C 62             -0.05        2.94765
         C 42 -- C 45             -0.05        2.94781
         C 6  -- C 17             -0.05        2.94811
         C 4  -- C 22             -0.05        2.94816
         C 12 -- C 48             -0.05        2.94851
         C 37 -- C 43             -0.05        2.94917
         C 33 -- C 54             -0.05        2.94942
         C 12 -- C 32             -0.05        2.94979
         C 15 -- C 26             -0.05        2.94987
         C 42 -- C 63             -0.05        2.94987
         C 30 -- C 59             -0.05        2.94991
         C 9  -- C 30             -0.05        2.95007
         C 1  -- C 24             -0.05        2.95027
         C 49 -- C 61             -0.05        2.95032
         C 39 -- C 50             -0.05        2.95036
         C 13 -- C 36             -0.05        2.95043
         C 6  -- C 34             -0.05        2.95048
         C 39 -- C 59             -0.05        2.95058
         C 29 -- C 33             -0.05        2.95076
         C 31 -- C 57             -0.05        2.95078
         C 12 -- C 39             -0.05        2.95120
         C 7  -- C 18             -0.05        2.95124
         C 3  -- C 13             -0.05        2.95129
         C 50 -- C 53             -0.05        2.95136
         C 44 -- C 45             -0.05        2.95141
         C 3  -- C 56             -0.05        2.95145
         C 28 -- C 45             -0.05        2.95174
         C 3  -- C 38             -0.05        2.95174
         C 21 -- C 27             -0.05        2.95181
         C 16 -- C 18             -0.05        2.95186
         C 42 -- C 56             -0.05        2.95186
         C 17 -- C 53             -0.05        2.95193
         C 31 -- C 58             -0.05        2.95207
         C 37 -- C 58             -0.05        2.95222
         C 5  -- C 9              -0.05        2.95223
         C 19 -- C 23             -0.05        2.95248
         C 4  -- C 7              -0.05        2.95259
         C 11 -- C 63             -0.05        2.95261
         C 26 -- C 56             -0.05        2.95272
         C 2  -- C 32             -0.05        2.95290
         C 8  -- C 36             -0.05        2.95291
         C 36 -- C 39             -0.05        2.95311
         C 34 -- C 61             -0.05        2.95324
         C 59 -- C 64             -0.05        2.95327
         C 43 -- C 48             -0.05        2.95335
         C 52 -- C 62             -0.05        2.95343
         C 40 -- C 58             -0.05        2.95353
         C 32 -- C 60             -0.05        2.95354
         C 5  -- C 52             -0.05        2.95365
         C 6  -- C 35             -0.05        2.95369
         C 30 -- C 58             -0.05        2.95378
         C 19 -- C 53             -0.05        2.95385
         C 14 -- C 43             -0.05        2.95396
         C 18 -- C 55             -0.05        2.95396
         C 22 -- C 51             -0.05        2.95399
         C 2  -- C 23             -0.05        2.95421
         C 13 -- C 41             -0.05        2.95424
         C 5  -- C 26             -0.05        2.95426
         C 21 -- C 36             -0.05        2.95468
         C 26 -- C 62             -0.05        2.95484
         C 11 -- C 46             -0.05        2.95508
         C 20 -- C 32             -0.05        2.95515
         C 13 -- C 34             -0.05        2.95518
         C 38 -- C 51             -0.05        2.95519
         C 1  -- C 38             -0.05        2.95520
         C 7  -- C 17             -0.05        2.95524
         C 9  -- C 45             -0.05        2.95546
         C 9  -- C 32             -0.05        2.95551
         C 14 -- C 41             -0.05        2.95567
         C 13 -- C 60             -0.05        2.95568
         C 2  -- C 8              -0.05        2.95569
         C 23 -- C 26             -0.05        2.95575
         C 3  -- C 32             -0.05        2.95580
         C 32 -- C 43             -0.05        2.95582
         C 44 -- C 47             -0.05        2.95596
         C 21 -- C 58             -0.05        2.95600
         C 40 -- C 49             -0.05        2.95618
         C 15 -- C 19             -0.05        2.95621
         C 36 -- C 54             -0.05        2.95622
         C 7  -- C 57             -0.05        2.95632
         C 14 -- C 27             -0.05        2.95633
         C 28 -- C 64             -0.05        2.95639
         C 49 -- C 64             -0.05        2.95641
         C 1  -- C 63             -0.05        2.95647
         C 2  -- C 22             -0.05        2.95650
         C 4  -- C 40             -0.05        2.95656
         C 18 -- C 21             -0.05        2.95659
         C 6  -- C 10             -0.05        2.95662
         C 21 -- C 49             -0.05        2.95664
         C 1  -- C 39             -0.05        2.95682
         C 54 -- C 58             -0.05        2.95691
         C 21 -- C 41             -0.05        2.95707
         C 18 -- C 54             -0.05        2.95710
         C 10 -- C 46             -0.05        2.95712
         C 11 -- C 64             -0.05        2.95714
         C 42 -- C 48             -0.05        2.95715
         C 12 -- C 46             -0.05        2.95715
         C 59 -- C 63             -0.05        2.95717
         C 24 -- C 35             -0.05        2.95728
         C 17 -- C 48             -0.05        2.95728
         C 38 -- C 44             -0.05        2.95738
         C 35 -- C 39             -0.05        2.95742
         C 2  -- C 45             -0.05        2.95742
         C 48 -- C 50             -0.05        2.95745
         C 54 -- C 59             -0.05        2.95749
         C 29 -- C 50             -0.05        2.95750
         C 46 -- C 57             -0.05        2.95761
         C 16 -- C 28             -0.05        2.95779
         C 20 -- C 37             -0.05        2.95780
         C 13 -- C 43             -0.05        2.95785
         C 3  -- C 7              -0.05        2.95788
         C 54 -- C 60             -0.05        2.95789
         C 16 -- C 59             -0.05        2.95793
         C 22 -- C 50             -0.05        2.95800
         C 6  -- C 20             -0.05        2.95806
         C 28 -- C 47             -0.05        2.95816
         C 23 -- C 41             -0.05        2.95818
         C 1  -- C 37             -0.05        2.95820
         C 11 -- C 45             -0.05        2.95824
         C 2  -- C 5              -0.05        2.95829
         C 36 -- C 48             -0.05        2.95832
         C 38 -- C 49             -0.05        2.95832
         C 26 -- C 29             -0.05        2.95838
         C 58 -- C 64             -0.05        2.95841
         C 28 -- C 55             -0.05        2.95841
         C 11 -- C 15             -0.05        2.95844
         C 47 -- C 57             -0.05        2.95848
         C 17 -- C 30             -0.05        2.95859
         C 22 -- C 25             -0.05        2.95863
         C 48 -- C 57             -0.05        2.95866
         C 4  -- C 5              -0.05        2.95880
         C 19 -- C 54             -0.05        2.95884
         C 24 -- C 25             -0.05        2.95896
         C 9  -- C 55             -0.05        2.95910
         C 23 -- C 49             -0.05        2.95924
         C 32 -- C 33             -0.05        2.95931
         C 33 -- C 46             -0.05        2.95934
         C 5  -- C 44             -0.05        2.95950
         C 4  -- C 14             -0.05        2.95951
         C 26 -- C 32             -0.05        2.95952
         C 19 -- C 29             -0.05        2.95959
         C 55 -- C 58             -0.05        2.95969
         C 42 -- C 62             -0.05        2.95972
         C 4  -- C 47             -0.05        2.95980
         C 35 -- C 40             -0.05        2.96006
         C 28 -- C 62             -0.05        2.96010
         C 9  -- C 56             -0.05        2.96031
         C 13 -- C 27             -0.05        2.96034
         C 24 -- C 41             -0.05        2.96037
         C 20 -- C 21             -0.05        2.96044
         C 2  -- C 39             -0.05        2.96051
         C 43 -- C 56             -0.05        2.96072
         C 27 -- C 31             -0.05        2.96087
         C 4  -- C 38             -0.05        2.96096
         C 2  -- C 38             -0.05        2.96104
         C 34 -- C 40             -0.05        2.96111
         C 27 -- C 62             -0.05        2.96114
         C 17 -- C 55             -0.05        2.96114
         C 8  -- C 26             -0.05        2.96115
         C 14 -- C 28             -0.05        2.96119
         C 37 -- C 41             -0.05        2.96122
         C 20 -- C 61             -0.05        2.96128
         C 56 -- C 60             -0.05        2.96129
         C 12 -- C 37             -0.05        2.96135
         C 29 -- C 59             -0.05        2.96140
         C 44 -- C 62             -0.05        2.96144
         C 15 -- C 60             -0.05        2.96147
         C 40 -- C 44             -0.05        2.96153
         C 18 -- C 61             -0.05        2.96154
         C 10 -- C 21             -0.05        2.96174
         C 7  -- C 52             -0.05        2.96176
         C 34 -- C 54             -0.05        2.96177
         C 11 -- C 30             -0.05        2.96178
         C 17 -- C 29             -0.05        2.96190
         C 3  -- C 21             -0.05        2.96201
         C 46 -- C 60             -0.05        2.96210
         C 8  -- C 42             -0.05        2.96221
         C 1  -- C 64             -0.05        2.96226
         C 16 -- C 25             -0.05        2.96232
         C 38 -- C 42             -0.05        2.96233
         C 35 -- C 54             -0.05        2.96237
         C 3  -- C 55             -0.05        2.96241
         C 29 -- C 57             -0.05        2.96242
         C 14 -- C 25             -0.05        2.96244
         C 24 -- C 58             -0.05        2.96252
         C 29 -- C 52             -0.05        2.96258
         C 6  -- C 11             -0.05        2.96259
         C 31 -- C 33             -0.05        2.96266
         C 21 -- C 60             -0.05        2.96275
         C 19 -- C 30             -0.05        2.96280
         C 22 -- C 28             -0.05        2.96290
         C 38 -- C 43             -0.05        2.96293
         C 27 -- C 47             -0.05        2.96295
         C 51 -- C 55             -0.05        2.96297
         C 42 -- C 53             -0.05        2.96297
         C 31 -- C 44             -0.05        2.96302
         C 19 -- C 40             -0.05        2.96306
         C 34 -- C 46             -0.05        2.96310
         C 10 -- C 24             -0.05        2.96311
         C 30 -- C 60             -0.05        2.96314
         C 43 -- C 55             -0.05        2.96315
         C 25 -- C 39             -0.05        2.96327
         C 5  -- C 57             -0.05        2.96338
         C 23 -- C 60             -0.05        2.96338
         C 51 -- C 61             -0.05        2.96349
         C 33 -- C 45             -0.05        2.96352
         C 17 -- C 45             -0.05        2.96359
         C 1  -- C 61             -0.05        2.96359
         C 35 -- C 46             -0.05        2.96368
         C 10 -- C 40             -0.05        2.96371
         C 21 -- C 51             -0.05        2.96379
         C 37 -- C 51             -0.05        2.96386
         C 3  -- C 31             -0.05        2.96403
         C 1  -- C 23             -0.05        2.96404
         C 11 -- C 16             -0.05        2.96406
         C 43 -- C 47             -0.05        2.96410
         C 12 -- C 61             -0.05        2.96412
         C 41 -- C 62             -0.05        2.96429
         C 17 -- C 54             -0.05        2.96438
         C 8  -- C 51             -0.05        2.96446
         C 33 -- C 55             -0.05        2.96446
         C 23 -- C 36             -0.05        2.96457
         C 27 -- C 48             -0.05        2.96458
         C 25 -- C 63             -0.05        2.96466
         C 16 -- C 34             -0.05        2.96467
         C 20 -- C 30             -0.05        2.96474
         C 35 -- C 45             -0.05        2.96474
         C 25 -- C 61             -0.05        2.96475
         C 18 -- C 30             -0.05        2.96480
         C 40 -- C 52             -0.05        2.96481
         C 58 -- C 61             -0.05        2.96495
         C 17 -- C 47             -0.05        2.96516
         C 34 -- C 47             -0.05        2.96519
         C 10 -- C 31             -0.05        2.96522
         C 30 -- C 57             -0.05        2.96536
         C 25 -- C 37             -0.05        2.96543
         C 8  -- C 9              -0.05        2.96550
         C 26 -- C 63             -0.05        2.96554
         C 33 -- C 56             -0.05        2.96563
         C 22 -- C 52             -0.05        2.96568
         C 22 -- C 49             -0.05        2.96589
         C 10 -- C 37             -0.05        2.96601
         C 53 -- C 59             -0.05        2.96610
         C 48 -- C 60             -0.05        2.96614
         C 36 -- C 37             -0.05        2.96620
         C 9  -- C 31             -0.05        2.96621
         C 15 -- C 41             -0.05        2.96629
         C 50 -- C 56             -0.05        2.96632
         C 40 -- C 59             -0.05        2.96649
         C 4  -- C 55             -0.05        2.96658
         C 31 -- C 43             -0.05        2.96673
         C 50 -- C 63             -0.05        2.96694
         C 3  -- C 8              -0.05        2.96694
         C 9  -- C 53             -0.05        2.96695
         C 15 -- C 25             -0.05        2.96708
         C 23 -- C 50             -0.05        2.96709
         C 6  -- C 36             -0.05        2.96722
         C 22 -- C 27             -0.05        2.96728
         C 1  -- C 22             -0.05        2.96728
         C 43 -- C 61             -0.05        2.96735
         C 14 -- C 26             -0.05        2.96745
         C 17 -- C 32             -0.05        2.96762
         C 9  -- C 46             -0.05        2.96765
         C 4  -- C 16             -0.05        2.96780
         C 24 -- C 28             -0.05        2.96797
         C 60 -- C 61             -0.05        2.96803
         C 36 -- C 56             -0.05        2.96812
         C 27 -- C 61             -0.05        2.96825
         C 35 -- C 63             -0.05        2.96829
         C 2  -- C 14             -0.05        2.96848
         C 4  -- C 45             -0.05        2.96849
         C 18 -- C 64             -0.05        2.96852
         C 23 -- C 35             -0.05        2.96858
         C 54 -- C 57             -0.05        2.96859
         C 8  -- C 17             -0.05        2.96862
         C 32 -- C 50             -0.05        2.96868
         C 34 -- C 64             -0.05        2.96878
         C 6  -- C 19             -0.05        2.96889
         C 11 -- C 29             -0.05        2.96893
         C 56 -- C 57             -0.05        2.96900
         C 45 -- C 50             -0.05        2.96902
         C 13 -- C 49             -0.05        2.96917
         C 3  -- C 22             -0.05        2.96919
         C 45 -- C 59             -0.05        2.96920
         C 49 -- C 62             -0.05        2.96929
         C 38 -- C 52             -0.05        2.96933
         C 21 -- C 25             -0.05        2.96941
         C 5  -- C 19             -0.05        2.96945
         C 46 -- C 58             -0.05        2.96953
         C 48 -- C 51             -0.05        2.96953
         C 28 -- C 53             -0.05        2.96971
         C 20 -- C 54             -0.05        2.96983
         C 35 -- C 53             -0.05        2.96985
         C 52 -- C 53             -0.05        2.96987
         C 15 -- C 36             -0.05        2.96990
         C 6  -- C 9              -0.05        2.97005
         C 7  -- C 27             -0.05        2.97008
         C 39 -- C 42             -0.05        2.97013
         C 4  -- C 24             -0.05        2.97020
         C 10 -- C 16             -0.05        2.97024
         C 28 -- C 29             -0.05        2.97031
         C 8  -- C 12             -0.05        2.97032
         C 34 -- C 55             -0.05        2.97045
         C 6  -- C 18             -0.05        2.97048
         C 15 -- C 59             -0.05        2.97050
         C 36 -- C 46             -0.05        2.97052
         C 7  -- C 51             -0.05        2.97064
         C 34 -- C 37             -0.05        2.97079
         C 11 -- C 24             -0.05        2.97088
         C 7  -- C 34             -0.05        2.97101
         C 14 -- C 44             -0.05        2.97111
         C 12 -- C 15             -0.05        2.97119
         C 27 -- C 32             -0.05        2.97141
         C 33 -- C 48             -0.05        2.97155
         C 12 -- C 13             -0.05        2.97157
         C 16 -- C 44             -0.05        2.97161
         C 46 -- C 59             -0.05        2.97171
         C 53 -- C 57             -0.05        2.97182
         C 38 -- C 50             -0.05        2.97196
         C 11 -- C 23             -0.05        2.97216
         C 26 -- C 53             -0.05        2.97231
         C 2  -- C 29             -0.05        2.97234
         C 8  -- C 20             -0.05        2.97236
         C 16 -- C 19             -0.05        2.97243
         C 15 -- C 49             -0.05        2.97259
         C 2  -- C 15             -0.05        2.97260
         C 5  -- C 35             -0.05        2.97265
         C 28 -- C 31             -0.05        2.97284
         C 51 -- C 56             -0.05        2.97285
         C 29 -- C 44             -0.05        2.97294
         C 16 -- C 49             -0.05        2.97303
         C 52 -- C 55             -0.05        2.97307
         C 38 -- C 41             -0.05        2.97307
         C 10 -- C 47             -0.05        2.97313
         C 20 -- C 39             -0.05        2.97318
         C 10 -- C 13             -0.05        2.97341
         C 41 -- C 63             -0.05        2.97341
         C 20 -- C 63             -0.05        2.97348
         C 40 -- C 41             -0.05        2.97355
         C 3  -- C 14             -0.05        2.97362
         C 60 -- C 63             -0.05        2.97373
         C 35 -- C 64             -0.05        2.97384
         C 1  -- C 14             -0.05        2.97392
         C 9  -- C 47             -0.05        2.97420
         C 13 -- C 18             -0.05        2.97440
         C 6  -- C 33             -0.05        2.97502
         C 22 -- C 26             -0.05        2.97506
         C 50 -- C 62             -0.05        2.97517
         C 5  -- C 33             -0.05        2.97528
         C 12 -- C 30             -0.05        2.97600
         C 7  -- C 44             -0.05        2.97661
         C 5  -- C 42             -0.05        2.97708
         C 15 -- C 42             -0.05        2.97723
         C 1  -- C 16             -0.05        2.97727
         C 20 -- C 56             -0.05        2.97778
         C 52 -- C 64             -0.05        2.97831
         C 10 -- C 30             -0.05        2.97893
         C 7  -- C 33             -0.05        2.97901
         C 19 -- C 39             -0.05        2.97905
         C 1  -- C 13             -0.05        2.97918
         C 43 -- C 62             -0.05        2.97946
         C 18 -- C 31             -0.05        2.97953
         C 2  -- C 48             -0.05        2.97961
         C 3  -- C 37             -0.05        2.98160
============================================================
 
 
     Hirshfeld Analysis
     ------------------
Species   Ion     Hirshfeld Charge (e)  Spin (hbar/2)
===================================================
  C        1                -0.00        0.00
  C        2                 0.00        0.00
  C        3                 0.00        0.00
  C        4                 0.00        0.00
  C        5                 0.00        0.00
  C        6                -0.00        0.00
  C        7                -0.00        0.00
  C        8                 0.00        0.00
  C        9                -0.00        0.00
  C       10                -0.00        0.00
  C       11                 0.00        0.00
  C       12                 0.00        0.00
  C       13                -0.00        0.00
  C       14                -0.00        0.00
  C       15                 0.00        0.00
  C       16                 0.00        0.00
  C       17                 0.00        0.00
  C       18                 0.00        0.00
  C       19                -0.00        0.00
  C       20                -0.00        0.00
  C       21                -0.00        0.00
  C       22                -0.00        0.00
  C       23                -0.00        0.00
  C       24                 0.00        0.00
  C       25                -0.00        0.00
  C       26                 0.00        0.00
  C       27                 0.00        0.00
  C       28                -0.00        0.00
  C       29                 0.00        0.00
  C       30                 0.00        0.00
  C       31                -0.00        0.00
  C       32                 0.00        0.00
  C       33                 0.00        0.00
  C       34                -0.00        0.00
  C       35                 0.00        0.00
  C       36                -0.00        0.00
  C       37                -0.00        0.00
  C       38                 0.00        0.00
  C       39                -0.00        0.00
  C       40                 0.00        0.00
  C       41                -0.00        0.00
  C       42                -0.00        0.00
  C       43                 0.00        0.00
  C       44                 0.00        0.00
  C       45                -0.00        0.00
  C       46                 0.00        0.00
  C       47                 0.00        0.00
  C       48                 0.00        0.00
  C       49                 0.00        0.00
  C       50                 0.00        0.00
  C       51                -0.00        0.00
  C       52                 0.00        0.00
  C       53                -0.00        0.00
  C       54                -0.00        0.00
  C       55                 0.00        0.00
  C       56                 0.00        0.00
  C       57                -0.00        0.00
  C       58                 0.00        0.00
  C       59                -0.00        0.00
  C       60                -0.00        0.00
  C       61                 0.00        0.00
  C       62                -0.00        0.00
  C       63                -0.00        0.00
  C       64                -0.00        0.00
===================================================
 

Writing analysis data to 01.castep_bin

Writing model to 01.check
 
 A BibTeX formatted list of references used in this run has been written to 
 01.bib
 
Initialisation time =     11.12 s
Calculation time    =   2054.53 s
Finalisation time   =      4.43 s
Total time          =   2070.09 s
  
Overall parallel efficiency rating: Very good (88%)                             
  
Data was distributed by:-
k-point (7-way); efficiency rating: Very good (88%)                             
