159
Lattice="10.0 0.0 0.0 0.0 10.0 0.0 0.0 0.0 10.0" Properties=species:S:1:pos:R:3:forces:R:3 Time=1.0 energy=72.49880814693064 stress="0.6130463691574423 -0.06259444373385031 0.0759578015331419 -0.06259444373385031 0.663070170137586 0.05513837224243489 0.0759578015331419 0.05513837224243489 0.7433346227612575" pbc="T T T"
C        0.17614516       9.88910218       4.15860798      17.93467431       4.78355923       8.56915093
C        9.51205441       2.57235842       3.83930983      -3.71925427       3.69023799      -1.49555048
C        3.35267535       1.98419741       0.05312534     -28.04581412       5.73369382      20.01822578
C        4.15566495       2.93508595       2.99890303      -1.61891720      -0.42569874      -0.96632029
C        0.15214279       8.85005954       0.80141484      -2.47752527       2.20822394       0.03651844
C        4.50071531       9.13899763       3.31041970      -0.11722978       1.70353941      -4.87137620
C        7.32192960       7.35237930       1.02342622       0.42969786      -2.02045837       4.80817797
C        9.68315702       2.35567472       6.58931464      -0.61111220       0.49758768      -5.15323499
C        3.91789342       9.92851183       9.72486991      -0.20061715      -7.78664959      -6.34099864
C        9.43191695       4.46159937       0.97241673       1.80271920      -3.53936745       1.45690231
C        3.00873829       0.24456174       4.66838136      -1.24020793      -1.98101843       2.73581666
C        0.72794291       6.40610388       1.63631199       5.80087809      -6.37256985       2.71621669
C        0.91006950       5.49353385       7.41833784       2.98536044      -1.58542131       3.16108139
C        0.12431965       9.83278375       5.46347178      12.27313448      -1.36222105       0.54420345
C        9.24207755       7.03946715       9.41637106      -1.76781438      -2.20690242      -1.63625063
C        1.60480034       5.48830533       3.70113518       3.33402685       2.04001929       0.28453822
C        5.49042125       7.92788534       9.73593115      -0.32496797       3.35688206       0.56828361
C        9.74665078       2.65900244       8.20500437      -2.18295090       3.35063004      -0.38066751
C        6.43514660       8.76031643       5.74229364      -1.50095567       1.00935486       1.36868569
C        7.76360177       8.06737019       2.23137058      -0.28542655      -0.18197140      -0.63245039
C        2.00946783       3.11709304       1.70397606      -1.05285910       0.18652703       2.93499679
C        2.96120769       9.39568131       8.73752852      -0.84401987      -3.92266601      -2.92759075
C        9.23799750       9.40728669       6.93352708      -1.69356404      -0.23704874       0.80246829
C        6.16219608       5.38857876       3.07289127      -2.93809514       0.75386141       5.61541596
C        2.22237428       3.40453389       9.31796422       0.22590800      16.16764313     -22.55057942
C        9.53445884       1.61369422       9.35704308       7.11808453      -4.47341645       0.36290340
C        1.11649187       1.62599988       5.75320037       1.23008220      -2.05626090       1.00506824
C        1.23750699       1.38248306       3.50429589       5.01299290       1.53626459       0.70089526
C        0.92365037       6.32964444       8.66331003       5.34594702       2.81123202      -4.12870549
C        4.68842675       7.72712251       0.77180826      -2.07365159      -6.06712073       0.31647755
C        9.27162787       7.00028738       4.94596292      -0.65054415      -1.63319515      -4.45134504
C        7.57386203       3.73278085       0.14105554      -4.94376430       1.46019543      -0.44724856
C        8.79301615       1.59897480       1.18494612      -6.39413961      -2.25696672       3.98868989
C        7.40198959       1.31604282       6.26045188      -0.53412719       1.58416969       1.09569659
C        7.49897417       1.57806137       2.04333224       0.01366237       1.34371844      -0.31689026
C        8.49024570       4.74381879       9.09425332       0.00951658       3.05910252      -3.28592866
C        5.89624781       1.28449743       8.17735337      -4.33063557       1.44773499      -1.40713145
C        7.17964041       2.85648079       4.21836940       0.74711623      -3.53166112       4.39221880
C        1.42057842       5.49370266       5.14854508      -4.63973403       3.60341948       0.65360654
C        5.80194902       8.92756347       2.88976402       4.90685684      -4.73554002       0.05868245
C        6.64782605       2.45056160       5.48767649       2.84248609       0.29633663      -3.32360512
C        4.40011986       3.83632662       5.37714359      -1.67850886      -2.31764698       3.74698968
C        6.29901112       5.04590059       1.61991616       3.00661927      -1.50513295       4.03855826
C        4.80961157       1.56832001       7.22161153       1.19978554       1.03262019      -0.28331504
C        2.23478953       2.83509752       0.06798184       3.53300255     -18.37192273      25.95955555
C        7.96348278       4.09502124       4.24250495       1.77445994      -2.41098801      -2.14150369
C        7.37497517       1.55233977       3.52945807       0.77517945       2.88002394      -0.52928936
C        7.58210515       5.52656289       3.71194911      -0.32600835       0.30584182      -2.87672660
C        3.24852604       9.27582151       7.36539689       3.34172520      -3.01732818       0.92258506
C        7.96137737       6.37220474       7.42273817      -4.99569784       0.56408728       0.29459723
C        6.25103271       9.45418580       1.57267598      -2.36603801      -6.04155529       2.32035286
C        7.54234498       5.91495954       1.29217959      -0.12234984       1.75033557       1.22949491
C        5.37266005       1.67819940       4.87810367       1.04542143      -0.31024931       0.31635172
C        4.12485375       1.88456958       9.55379690      26.13313543      -1.43480498     -18.47242640
C        8.43288189       0.43615842       9.53324391      -3.82846755      -2.95407732      -4.39757376
C        8.79170362       1.26218308       4.17264826      -3.18996710       9.51391203      -0.25243212
C        9.51559270       0.12443763       3.35292840      -9.24053355       6.46760982      -8.42639618
C        4.91943125       2.66590535       1.85763542      -3.12357513      -4.23457480       3.15685678
C        6.73537489       8.57652733       7.33311037      -0.11789170       2.21097078       1.30984442
C        4.54486985       6.13451584       6.32673190       0.93623626       0.54757348      -1.88740807
C        0.73338651       7.43551112       0.56414461      38.96158083     -11.70441930      16.18459687
C        9.57106685       4.76066870       2.44058873      -5.17992505      -3.14784537      -0.34847543
C        0.89576269       3.97848501       1.55361708       5.06368351       4.77154215      -2.53936534
C        8.46072764       5.88136118       2.56104628      -2.65244624       0.16177139       1.38000781
C        3.10583206       1.11196291       1.35836327       0.15184269       3.05535345       4.55510755
C        0.78412556       1.00371605       6.97683411       1.80614538       3.64754074      -8.30153552
C        4.55770649       9.09844260       7.06478791      -3.99998046       2.70113825       0.80286544
C        5.09159138       0.77402533       6.01717551       1.95123441       7.38510169       2.33467927
C        7.03287868       4.78184348       9.32160100      -0.65985889      -3.75819987       1.42106334
C        4.95657042       5.16653391       0.77382696       1.16873807       7.23694283      -1.23877561
C        2.06610260       5.47614126       6.43987995      -2.12995525      -1.07842841       0.36517716
C        3.41541102       5.21935115       7.00764993      -0.98753103      -1.92208205       0.89437989
C        6.75190508       7.05896505       7.81298646       2.40629153      -4.42682353      -1.59388560
C        2.97907588       3.70059834       2.64786347       0.65614820       2.14541481       1.64829949
C        5.18804177       5.56314056       3.95403158       0.89113393      -2.58363767      -3.81507726
C        9.35816945       9.21953350       4.10936526     -11.37983978     -13.42275200      -0.77105036
C        3.75807873       5.24045199       8.46946501       5.74750048       0.61114552       0.60524053
C        2.23698672       7.67980585       0.30202775      -0.99383464      -2.68207435       0.03667857
C        0.30118627       0.91415655       0.07116334     -91.93448667     -40.65315274     100.73570938
C        4.09597937       9.62648119       4.69646397      -2.31666823      -0.08136320       0.44611118
C        0.72487468       3.44634597       9.10856101      -4.27959137       3.77787135       0.98770895
C        7.76107153       6.56740864       4.91931491       0.28507718       1.18486675       0.18425198
C        6.82192682       8.18140710       3.39001066      -2.16888533       3.29020334       0.87970783
C        9.59440472       9.24186654       9.66112979      -1.64571914       0.10422122       2.58548617
C        8.24517182       5.07979829       0.19218384      -0.47615671      -1.58378026       1.89530672
C        9.05619473       6.03023069       8.41157322      -3.52119603       3.95192327       2.78114867
C        0.99158384       6.52331879       2.95610170       2.87588962       1.70799925      -0.21080240
C        1.84529757       8.64610114       9.09342615       4.24690557      -2.70274137      -3.37958288
C        6.39395895       2.40257908       1.49685470       1.39628192       4.39741157      -1.48604343
C        9.89944374       7.67291849       0.30768528     -34.22115400       6.53721236     -14.86819408
C        3.37200907       8.65966549       2.65642721       4.54507355      -1.85197389      -2.37808566
C        8.83895666       1.18241950       5.77240575      -5.95992275       1.15299102      -3.43274946
C        3.76024511       3.75865100       6.57086740       5.29991136      -2.43889087      -3.66321339
C        0.49225067       4.12050066       7.82133432       1.98419038       2.74263232       0.86658758
C        6.90608736       3.75949051       1.40343601      -3.57180840       0.08987254      -2.09461408
C        6.87309668       3.65423647       6.47516541       2.82131406       1.29049803      -0.85547880
C        2.20333870       5.18823235       0.22087105      -7.11445638      -5.18081151      20.99401495
C        5.92463884       2.19676819       0.08156714       9.71180140      13.97757400      18.09685659
C        7.33010587       3.14937905       7.85523884       0.65154508      -2.31442077      -1.53976751
C        1.88818817       6.02078297       9.66975376      -3.10636520      15.44505168     -10.41095519
C        0.06456888       5.82748603       5.37824294       3.65974732       2.32524098      -2.82778143
C        3.77364069       5.80778937       3.76878178      -0.36757777       0.17448979       1.69831890
C        4.52764797       2.80258477       4.39286192       1.94263936       1.99912689       2.03704134
C        6.08446374       8.19546299       0.73250700      -0.64295294      -0.37191848       5.84355658
C        9.31922335       7.88173773       3.87317280      -3.22206667      -5.64331650       0.70721887
C        7.02718193       7.82660022       4.74327809       0.02673488       0.55800604      -4.98669216
C        4.87550767       8.73661858       5.70907647      -1.87670525      -3.99915074       4.28685497
C        0.77514929       1.12536431       9.59589361      86.67782106      46.60288033     -99.39648883
C        3.50926981       7.04590294       4.45378280       2.46583434      -0.53905391       0.89908332
C        3.44924338       8.23077743       1.33316707       3.85999858       1.81686017       4.35553544
C        5.62665387       6.06960129       7.44597206      -1.02507653      -1.27366194       2.56553275
C        4.53969044       2.79888763       0.44901376       0.69718923       1.19962747       1.46381664
C        1.19444284       7.76857359       3.55683601       2.96886085      -1.05679273      -2.37822790
C        3.30823351       2.55888043       8.67480086       2.90142892       0.03581713      -4.73675800
C        6.25452410       5.05860174       6.35438360       2.00770339       0.44223585      -1.32352935
C        9.05476721       3.73433620       3.39620123      -0.15305820      -4.08193294       4.88104590
C        2.76732077       4.82897923       9.46122647      11.99553561     -10.71910784     -18.69585774
C        5.28516879       9.28280858       9.39558578      -2.93195748       0.77559687      -4.84099426
C        0.48530409       0.94504245       1.47500645       1.71123917      -3.56288822       1.55869740
C        1.77735676       1.66726969       2.10173417      -0.92398282       1.39977701      -0.62327159
C        6.47739271       0.02588994       6.46299066      -0.64711250      -0.31947726      -5.65290298
C        3.86588610       2.60811058       7.39659517       3.28785984      -0.01534517       1.54811773
C        0.64639584       9.41577051       1.93324727      -4.84264786      -0.63905535      -3.70548635
C        5.15350345       5.13563027       5.35520422      -0.04722540      -0.45347189       0.39139769
C        7.27318314       1.73112887       7.66827908      -0.91869866      -3.23597520      -0.55842534
C        7.73120892       0.52378298       8.30161044       3.37708728      -1.57001226       1.07853484
C        8.73019404       3.67958935       8.05702536      -1.09654025      -2.21907564       0.78943300
C        2.24311447       8.95764624       6.35842445       2.55645290      -0.06490028       3.95478607
C        0.33471676       2.81032036       5.55792621      -0.37963824      -5.57714421       3.73217175
C        6.06377922       5.74792539       9.75520206      -1.63754623       1.17074822      -6.13757979
C        7.60190373       5.69325616       6.15125114      -0.57434224      -0.22567229      -0.32383009
C        2.68485284       9.19534586       5.03481063       0.13398954      -1.43575470       1.44790456
C        2.82912467       4.95629405       3.27015580       0.66290494       0.99350756       1.76426335
C        0.51559896       8.90945503       3.22425266       7.62758572      -4.74262245      -7.34043374
C        9.05806287       7.33265187       2.59389085      -4.65854045       1.29853401       4.38408548
C        4.37246359       7.34833223       5.53638618      -3.97053528      -2.90110476      -4.18045525
C        8.12855463       4.29189381       5.81292251      -1.90228829       0.30092707       2.09460338
C        9.31421132       3.87633385       6.59886112      -2.40907994      -0.52949668       1.05002602
C        9.98026039       3.38863969       0.12747291       2.63340582       4.90328913      -0.20021717
C        4.13782339       1.54099049       2.34943483       2.00606151      -0.12184238      -2.35818966
C        6.05886659       0.72337341       3.87132803      -2.97817335       4.96536906      -1.01910246
C        7.77259762       9.46107711       1.60072821      -5.21032407     -15.19719852       5.60636066
C        1.01340891       8.32126663       6.89026130       6.29920297      -0.49996727       4.53171761
C        7.92521440       9.21352822       7.85367546      -1.79707229       5.86817589       0.57216730
C        5.60803061       9.39074750       7.88096740      -4.16368600      -3.77333648      -1.98225750
C        6.52759990       3.55639992       9.03104375       5.68439187       2.05114360       0.41167016
C        1.13288111       7.75785055       8.21122741       3.70095989       3.55445045      -1.08818007
C        5.53254108       1.54180421       9.51060253      -8.67880284     -12.13092833     -21.59661202
C        6.61518519       7.10497316       9.43068715      -3.38432115      -3.05385081      -0.69245741
C        8.23173812       9.04800693       9.29234916       4.81798900       2.94426644       0.72730405
C        9.11024870       9.93802614       5.43732160     -10.89826220       2.64040323       6.58948920
C        1.18346009       5.24256125       1.10009114      -2.39194691      -1.60101690       5.20334139
C        2.94520584       6.33797938       0.30797712       0.90397918       9.87700310      -0.41556314
C        2.56578507       8.08725818       3.96906947       0.22806386      -3.64796641       0.38860687
C        4.30984691       6.37279191       0.61169688      -2.76803493      -1.60475583       0.27057966
C        5.04696044       5.57112864       8.66960059      -4.59209948       1.00575999      -6.38319009
C        4.93590315       0.48622167       2.82796661       0.36827707       4.57196130       3.91069626
C        2.03236937       1.30835040       4.76108579      -4.71267577      -1.30977732      -1.04926804
C        7.91064668       0.38238425       1.26122958       5.69577715      15.88701812      -1.91070293
159
Lattice="10.0 0.0 0.0 0.0 10.0 0.0 0.0 0.0 10.0" Properties=species:S:1:pos:R:3:forces:R:3 Time=2.0 energy=37.71922163442737 stress="0.7028593938927535 -0.04953569370600223 0.04914734236718453 -0.04953569370600223 0.7250431246863248 0.03381689335157637 0.04914734236718453 0.03381689335157637 0.8262625501247364" pbc="T T T"
C        0.22316979       9.89819749       4.18437402       8.80602598       1.08764870       2.88224999
C        9.51886951       2.57886765       3.83547795      -4.01780858       3.64252982      -1.59948032
C        3.30175798       1.99572218       0.08328219      -9.61558002       2.72822920       8.78492585
C        4.15490738       2.93456199       3.00142251      -1.79191087      -0.30856205      -1.04831289
C        0.14997498       8.85114268       0.81111293      -2.77153234       1.45777439       0.14729226
C        4.50631564       9.14410873       3.31073389       0.17315152       1.72610617      -4.54486152
C        7.31586887       7.35203571       1.01824078       0.00953851      -2.17572927       4.52260200
C        9.67388256       2.34798667       6.59461564      -0.44511811       0.41649656      -5.14360955
C        3.91222947       9.91950428       9.71421110      -0.06227276      -7.30313423      -6.37437443
C        9.42708467       4.46711273       0.96880007       1.17364213      -3.64722195       1.26272722
C        3.00435893       0.26342890       4.66798951      -1.19935345      -3.89689182       3.16707939
C        0.72823573       6.40571092       1.63721221       5.48773154      -4.97581979       2.08370735
C        0.91253270       5.49873561       7.41681757       2.94107265      -1.83337452       3.18312128
C        0.16983926       9.82696484       5.47064818       4.16484567       0.00423020      -0.23768042
C        9.23619247       7.04197111       9.40915067      -0.86484356      -1.79242705      -0.75437955
C        1.60421859       5.49426302       3.70841431       3.26273746       2.19612264       0.19352939
C        5.47799485       7.93848138       9.72506225       0.23747471       3.28057815       1.81721075
C        9.73726080       2.65259636       8.20856424      -2.12036572       2.76731338       0.06260216
C        6.44026441       8.75726609       5.73653330      -1.60822728       0.97071701       1.39777939
C        7.75861116       8.06722028       2.22317462       0.18961078       0.50539832      -0.62937301
C        2.00482123       3.12355923       1.71072766      -1.11862008       0.22173582       2.51476591
C        2.96565275       9.38995266       8.73612373      -0.73926822      -4.23116291      -3.04081150
C        9.23587214       9.40914953       6.93442315      -1.94130141      -0.28218373       0.57425891
C        6.16449010       5.38926118       3.06936756      -2.90016641       0.62817961       5.26065911
C        2.22055435       3.44861631       9.27195087       0.73599410       2.24885687      -3.91238318
C        9.53696740       1.61095858       9.35770433       1.64008004      -2.70814964      -0.05114078
C        1.12297963       1.62295158       5.75593332       1.22986967      -2.14531257       0.98403544
C        1.23772170       1.38420874       3.51050435       4.84456345       1.33144988       1.09657679
C        0.93274592       6.32885794       8.65297615       5.72634721       2.61778234      -3.56361895
C        4.69236365       7.71783506       0.77756276      -1.83964912      -5.73257718       0.08205851
C        9.27803159       6.99710940       4.94762737      -0.49092807      -2.13342190      -4.22903302
C        7.57531152       3.72992302       0.15051074      -4.86629839       1.41463129       0.22561309
C        8.78800863       1.60249890       1.19389556      -7.35646467      -2.61200462       4.49398832
C        7.40720821       1.31633305       6.25581023      -0.55025827       1.65688605       0.97755091
C        7.50683657       1.58658326       2.03701266      -0.06271758       0.40160179      -0.39522472
C        8.50011849       4.74915042       9.07659924      -0.08177018       3.53151288      -2.48502905
C        5.89457020       1.28087082       8.18012782      -4.27597549       1.72314150      -0.44219520
C        7.17609304       2.85309178       4.21673245       0.77599489      -3.59357973       4.39294813
C        1.41182785       5.49261930       5.14962058      -4.64251073       3.71165866       0.44146200
C        5.80585063       8.91864045       2.89593920       4.47333357      -4.78647387       0.45035481
C        6.64267787       2.44445938       5.48594341       2.94811385       0.15744823      -3.44159643
C        4.40289621       3.84240921       5.38541710      -1.87897680      -2.33950693       4.04061497
C        6.30358817       5.04277131       1.62963788       3.05498328      -1.19941947       4.20851458
C        4.80783060       1.56530330       7.21635737       1.06914297       0.76226525      -1.00172442
C        2.24050116       2.79157208       0.11933599       3.84549382      -3.83587010       8.22550688
C        7.96840426       4.08824135       4.24706297       1.63904495      -2.37573515      -2.23663472
C        7.36984431       1.55748743       3.52148746       1.11063851       2.97270165      -0.22155141
C        7.58806744       5.51923012       3.71054328      -0.28832185       0.52700319      -2.86444718
C        3.24421721       9.26915210       7.37009516       3.29345338      -2.77009896       0.92328391
C        7.96282182       6.37461144       7.43044568      -5.05333176       0.47976284       0.18946644
C        6.25050387       9.45303500       1.56665082      -1.27720118      -6.01559759       2.20840369
C        7.53809959       5.91674006       1.28711911      -0.29752955       1.50737055       1.00712481
C        5.36759604       1.67334316       4.87805855       1.07759483      -0.21051246       0.34371624
C        4.17561497       1.87835581       9.52537402       6.60250180       1.11187908      -5.77039897
C        8.41969687       0.43143234       9.53745117      -3.04752291      -2.63106337      -4.27954606
C        8.78332126       1.27708191       4.16391405      -2.90694690       9.02213857      -0.03761915
C        9.50118117       0.13753477       3.33248344      -5.55256522       2.98747411      -3.19381636
C        4.91275402       2.65397899       1.86495743      -3.93839516      -4.10016132       3.29114692
C        6.73655134       8.57031767       7.32845992      -0.04185564       2.21057849       1.36562479
C        4.54359794       6.14140190       6.33097529       0.75322765       0.77225634      -2.13896386
C        0.79889149       7.41802259       0.59200484      14.01858423      -4.90228230       8.50905818
C        9.56449772       4.75926296       2.43459275      -5.25393189      -3.02158335      -0.41639719
C        0.89916117       3.98495325       1.54879401       5.19761200       4.68733348      -2.46902809
C        8.46816194       5.88300470       2.56755108      -2.60953043       0.05546627       1.52484324
C        3.10964758       1.11560635       1.35363643       0.51647662       3.24216635       4.03796302
C        0.78956969       1.00947565       6.97880500       1.70225364       3.72154962      -8.27203507
C        4.55943057       9.10541715       7.07260493      -3.76288779       2.40870627       0.55202186
C        5.09781422       0.78699744       6.02728791       1.72731539       7.28976828       2.52392113
C        7.03068898       4.78203788       9.31463180      -0.59052098      -3.79775470       1.43817560
C        4.96593807       5.17738691       0.76673593       1.06502447       7.19380323      -1.34611546
C        2.06569536       5.47098620       6.44174471      -1.94380426      -1.01995265       0.57691377
C        3.41018464       5.22085866       7.00478167      -1.16086868      -1.73948734       0.55111720
C        6.75020831       7.05217355       7.80639314       2.34501550      -4.51096160      -1.34984292
C        2.98206736       3.69823802       2.65086936       0.60421531       2.18171844       1.68021428
C        5.18861770       5.56864921       3.94759830       0.78668991      -2.69446962      -3.70019648
C        9.33200133       9.19552476       4.10941883      -5.34603272      -6.66768934      -1.57311611
C        3.76045825       5.24164538       8.47621671       5.20515863       0.46615537       1.56078509
C        2.23587385       7.67854858       0.30911152      -1.83055689      -3.00406303      -0.01209425
C        0.24796642       0.87899674       0.13671259     -21.70340882      -9.64538444      32.69927577
C        4.10357199       9.62752345       4.69237698      -2.84014686       0.29563940       0.42247525
C        0.72815318       3.44959505       9.10202694      -3.75408103       3.57724515       0.75832338
C        7.75846422       6.57077476       4.91531652       0.26593877       1.10680940       0.24627440
C        6.82361611       8.17544548       3.39019060      -2.64456771       3.51184565       1.27679499
C        9.59603654       9.24713956       9.66255174      -1.62480261       0.17873199       2.62214846
C        8.24392786       5.07566877       0.20890861      -0.09322357      -1.84171689       1.00318679
C        9.05404622       6.03760972       8.41051313      -3.86265086       4.23051978       3.08924217
C        0.99917728       6.51949618       2.96271246       2.85762890       1.47049909       0.15410596
C        1.85161443       8.64505167       9.08752302       4.11116028      -2.84177787      -3.62817752
C        6.39517532       2.39903138       1.49093576       1.20022118       3.84351303      -2.30639402
C        9.84413093       7.68868875       0.27993849      -8.59728452      -0.71089631      -7.55994415
C        3.36702813       8.65472009       2.65579914       4.56175829      -1.91631053      -2.84803939
C        8.83132926       1.18926760       5.76623938      -5.88789117       0.84707310      -3.29542856
C        3.76791510       3.75328464       6.56556547       5.36614625      -2.26866446      -3.92759024
C        0.48973476       4.13269965       7.81073281       1.92560049       3.25447378       0.49351634
C        6.91054314       3.75593873       1.39743078      -3.15582797       0.72426947      -2.13849065
C        6.87359204       3.66212258       6.48111353       2.94193173       1.39369764      -0.85373842
C        2.19584424       5.18443845       0.25322434      -4.25477527      -1.12403075      10.62788814
C        5.95527395       2.24111991       0.12791370       1.29673791      -0.17940129       3.49896034
C        7.33674529       3.15447034       7.85985009       0.52748213      -2.17973537      -1.51204115
C        1.86994680       6.04695115       9.64750334      -0.67870388       9.56434121      -6.55780603
C        0.06315761       5.83733127       5.38171311       3.50221134       2.54046330      -3.00556102
C        3.78002946       5.80856627       3.77092545      -0.48711996       0.44128570       1.69492178
C        4.52353664       2.80008243       4.40010007       2.06168358       1.81643965       1.84563637
C        6.09125932       8.19702398       0.75394565      -1.37043162      -0.77208861       4.54847311
C        9.31732018       7.87396832       3.87038421      -3.09738107      -5.17001163       0.85112933
C        7.02972453       7.83147767       4.73407354      -0.03696468       0.40196623      -5.03571252
C        4.87621455       8.73184843       5.71742525      -1.94495803      -3.84670953       4.10629579
C        0.83744496       1.14697124       9.52782799      22.39016498      14.20077246     -30.72503834
C        3.51102950       7.03864791       4.44812102       2.57246684      -0.64186862       0.96821925
C        3.44833842       8.23035912       1.34303730       3.67096442       1.98050342       4.94613680
C        5.63242867       6.07048363       7.45156053      -1.04089421      -1.14780859       2.37821320
C        4.54796163       2.80129426       0.44889781       0.62691739       1.02471811       1.37684982
C        1.19787548       7.76949946       3.55732543       2.58383530      -0.59063173      -2.81131777
C        3.30573785       2.55382382       8.66122524       4.14729598       0.32901916      -6.20401040
C        6.24955523       5.06078378       6.35203670       2.21558701       0.50016470      -1.24091851
C        9.05233100       3.73003954       3.39203086       0.01852334      -4.09965839       5.03154734
C        2.78752252       4.81387318       9.43096800       7.05703038      -7.52028663     -11.90899130
C        5.27766866       9.28786084       9.39362786      -3.01905874       0.55504786      -4.68746709
C        0.48685588       0.93731607       1.47786670       0.67173473      -3.92767366       0.66797783
C        1.77692560       1.66664937       2.09523864      -0.90859437       1.45220476      -0.65326711