159
Lattice="10.0 0.0 0.0 0.0 10.0 0.0 0.0 0.0 10.0" Properties=species:S:1:pos:R:3:forces:R:3 Time=1.0 energy=-141.17805394593148 stress="-0.43210815188516 -0.0043499614482158016 0.019311772788798337 -0.0043499614482158016 -0.38438897710046954 0.03786206057221931 0.019311772788798337 0.03786206057221931 -0.3325491778826238" pbc="T T T"
C        0.17614516       9.88910218       4.15860798      45.66351103      12.05464836      24.14070092
C        9.51205441       2.57235842       3.83930983       6.68373491      -3.78782292       2.78595114
C        3.35267535       1.98419741       0.05312534     -43.06698900       3.62101789      31.16895147
C        4.15566495       2.93508595       2.99890303      -1.59907809       0.55039708       2.42641280
C        0.15214279       8.85005954       0.80141484       1.15150821       0.11612942       5.11280118
C        4.50071531       9.13899763       3.31041970      -2.23548255       3.40901131       0.02763423
C        7.32192960       7.35237930       1.02342622      -1.72519570      -1.22337897      -0.50514073
C        9.68315702       2.35567472       6.58931464      -7.28494504      -3.16844501       5.14418437
C        3.91789342       9.92851183       9.72486991       1.20304634      -4.38648630      -0.77639294
C        9.43191695       4.46159937       0.97241673      -0.33186207      -0.53382174      -0.42963033
C        3.00873829       0.24456174       4.66838136      -6.32263830      23.05993333      -4.93473962
C        0.72794291       6.40610388       1.63631199      -0.26895847       1.82426786      -0.13130075
C        0.91006950       5.49353385       7.41833784       1.91610616      -2.12945355       1.30018017
C        0.12431965       9.83278375       5.46347178      49.73035668      -7.50775900       5.26833122
C        9.24207755       7.03946715       9.41637106      -4.51277894      -3.62695340      -5.46302720
C        1.60480034       5.48830533       3.70113518      -0.50097891      -0.14198686       1.69216938
C        5.49042125       7.92788534       9.73593115      -7.06358102       2.62019938     -18.34486706
C        9.74665078       2.65900244       8.20500437      -1.35429935      -5.31380874       1.31551086
C        6.43514660       8.76031643       5.74229364      -0.41311277      -1.59883717       0.93684220
C        7.76360177       8.06737019       2.23137058       4.51200069       1.22740867      -1.27599413
C        2.00946783       3.11709304       1.70397606      -0.35241576      -1.92149008      -0.95430406
C        2.96120769       9.39568131       8.73752852      -0.43230210       1.13430718       0.33004656
C        9.23799750       9.40728669       6.93352708       2.01008275      -3.25816079      -0.10788209
C        6.16219608       5.38857876       3.07289127       1.83747905      -0.19701526       1.11930019
C        2.22237428       3.40453389       9.31796422      -0.23638827      37.90518184     -52.75707945
C        9.53445884       1.61369422       9.35704308      -7.59181635       6.56512350      -7.08967872
C        1.11649187       1.62599988       5.75320037       5.90513677       1.36365347      -0.05255263
C        1.23750699       1.38248306       3.50429589       4.06877631       3.32517323       0.77444003
C        0.92365037       6.32964444       8.66331003       1.69290467       1.02056076      -4.32116390
C        4.68842675       7.72712251       0.77180826      -2.90537731      -4.96216338       4.66102295
C        9.27162787       7.00028738       4.94596292      -0.97813274      -5.77457191       2.43851477
C        7.57386203       3.73278085       0.14105554      -3.32837246      -4.09602033       4.69879279
C        8.79301615       1.59897480       1.18494612       0.08605260      -0.08513587       5.58004057
C        7.40198959       1.31604282       6.26045188      -1.68414388      -0.17150234      -1.10447666
C        7.49897417       1.57806137       2.04333224       0.28071394       1.81949849      -0.58393498
C        8.49024570       4.74381879       9.09425332       6.92953807       2.72411057     -23.99480189
C        5.89624781       1.28449743       8.17735337      -0.88632604      -1.20879426      -2.07577126
C        7.17964041       2.85648079       4.21836940      -1.58809347      -0.32688083       0.32237617
C        1.42057842       5.49370266       5.14854508      -1.30812953       1.03732374       0.86618371
C        5.80194902       8.92756347       2.88976402       3.31563741      -0.80778585      -0.60353540
C        6.64782605       2.45056160       5.48767649      -0.43801673       0.06758762       0.68558771
C        4.40011986       3.83632662       5.37714359      -0.62077939      -0.35636630      -1.18277426
C        6.29901112       5.04590059       1.61991616      -1.07479743      -0.16264707       5.48597475
C        4.80961157       1.56832001       7.22161153      -0.03592866      -0.15304541      -0.77655383
C        2.23478953       2.83509752       0.06798184       2.39776018     -38.47549440      57.68694203
C        7.96348278       4.09502124       4.24250495      -0.05982190       1.63636820       1.52671416
C        7.37497517       1.55233977       3.52945807      -0.41676253      -0.56985105      -1.08574074
C        7.58210515       5.52656289       3.71194911      -2.17080553       0.05353756      -0.14810955
C        3.24852604       9.27582151       7.36539689      -1.01351386      -0.52033073      -0.47098056
C        7.96137737       6.37220474       7.42273817       1.70203430      -0.43472925      -0.52030503
C        6.25103271       9.45418580       1.57267598      -2.94088597      -2.68883891      -1.12814512
C        7.54234498       5.91495954       1.29217959       2.11318203       0.86630803       1.60860721
C        5.37266005       1.67819940       4.87810367       2.23087701       0.64477164       1.15558062
C        4.12485375       1.88456958       9.55379690      40.55984361      -8.23361968     -28.88127470
C        8.43288189       0.43615842       9.53324391      -4.75335624       4.74045203      -2.26652208
C        8.79170362       1.26218308       4.17264826      -2.67572258       4.86598483      -4.03603591
C        9.51559270       0.12443763       3.35292840     -25.70056778      25.07324228     -31.29270201
C        4.91943125       2.66590535       1.85763542       3.07757085      -1.84457550      -2.46823153
C        6.73537489       8.57652733       7.33311037       0.14667614      -3.47322162       0.05743974
C        4.54486985       6.13451584       6.32673190       0.20462799       0.17498295       0.77076408
C        0.73338651       7.43551112       0.56414461      61.62126912     -16.12964683      26.57517750
C        9.57106685       4.76066870       2.44058873      -5.01784548      -3.90910263       0.61059004
C        0.89576269       3.97848501       1.55361708      -0.98112065      -0.73017233       1.31902041
C        8.46072764       5.88136118       2.56104628       1.15030160       0.74036311      -1.15960597
C        3.10583206       1.11196291       1.35836327      -1.43785478      -0.43985450       1.69377104
C        0.78412556       1.00371605       6.97683411       1.01112014      -2.62038905       1.67088188
C        4.55770649       9.09844260       7.06478791      -2.75310200       0.24154919      -0.50631100
C        5.09159138       0.77402533       6.01717551       1.98614975       3.54664957       1.93988519
C        7.03287868       4.78184348       9.32160100      -6.38201480       4.43274325      -3.86144728
C        4.95657042       5.16653391       0.77382696       4.65029869       0.47887993       1.36331256
C        2.06610260       5.47614126       6.43987995      -2.17682892      -0.23194897       0.36881993
C        3.41541102       5.21935115       7.00764993       0.17239832      -0.52689750       0.05620334
C        6.75190508       7.05896505       7.81298646       0.07880196       0.85022653       2.29156194
C        2.97907588       3.70059834       2.64786347       0.12961550       1.84143756       0.24990413
C        5.18804177       5.56314056       3.95403158      -0.35791758      -0.70753988      -0.50419354
C        9.35816945       9.21953350       4.10936526     -30.83950675     -28.48454314       9.35630038
C        3.75807873       5.24045199       8.46946501      -0.24327049      -0.60767261      -0.63837579
C        2.23698672       7.67980585       0.30202775      -0.10062293       5.26363323       3.18752762
C        0.30118627       0.91415655       0.07116334      -9.17780587     -11.68387444      29.09466133
C        4.09597937       9.62648119       4.69646397      11.83546856      -6.63819134       0.54736913
C        0.72487468       3.44634597       9.10856101       5.55138369       2.67824197      -9.86371942
C        7.76107153       6.56740864       4.91931491       0.71369996      -1.04175997       1.62503713
C        6.82192682       8.18140710       3.39001066       1.22893351      -0.39895008       1.65802255
C        9.59440472       9.24186654       9.66112979       0.21935684       4.01994778      -4.49720468
C        8.24517182       5.07979829       0.19218384       1.55723042       3.25736803      22.07543924
C        9.05619473       6.03023069       8.41157322      -2.71114591       2.54208930      -0.34947619
C        0.99158384       6.52331879       2.95610170       2.78223790       0.33006146       1.22920989
C        1.84529757       8.64610114       9.09342615       2.12497564      -2.72632169       1.26513498
C        6.39395895       2.40257908       1.49685470      -1.12882390       1.53611520      -0.96292014
C        9.89944374       7.67291849       0.30768528     -57.46620000      12.28939665     -18.22519296
C        3.37200907       8.65966549       2.65642721      -2.65293685      -2.25826876      -0.00027054
C        8.83895666       1.18241950       5.77240575      -8.93863023       5.88938357      -1.60171719
C        3.76024511       3.75865100       6.57086740       0.38880054      -0.24343915       0.25396893
C        0.49225067       4.12050066       7.82133432       2.77718362       5.02111632      -3.74427805
C        6.90608736       3.75949051       1.40343601       1.22757405      -1.24080575       0.59773571
C        6.87309668       3.65423647       6.47516541       0.13814613      -0.24571291      -0.55690045
C        2.20333870       5.18823235       0.22087105     -12.38779157      -5.34130823      41.29904832
C        5.92463884       2.19676819       0.08156714      25.98129680      46.48130008      37.31635472
C        7.33010587       3.14937905       7.85523884      -1.04104788      -0.21949869      -0.67009121
C        1.88818817       6.02078297       9.66975376     -17.23339266      19.00052621     -25.65040693
C        0.06456888       5.82748603       5.37824294      -0.42376307       3.52361439      -0.91363973
C        3.77364069       5.80778937       3.76878178       0.51217483       1.56216252       0.44751011
C        4.52764797       2.80258477       4.39286192       0.29984541       0.27368131       0.69222506
C        6.08446374       8.19546299       0.73250700      10.68105454       3.90232354      19.70490917
C        9.31922335       7.88173773       3.87317280       0.16839447      -1.12154216       2.60061977
C        7.02718193       7.82660022       4.74327809      -0.74705563       1.65093898      -0.59682776
C        4.87550767       8.73661858       5.70907647       0.45562724      -3.26761308       0.77296909
C        0.77514929       1.12536431       9.59589361      24.85453024       6.21033353     -20.28188335
C        3.50926981       7.04590294       4.45378280       0.47170685      -0.87501081       0.30947115
C        3.44924338       8.23077743       1.33316707      -2.41182891       2.47604661       1.20436449
C        5.62665387       6.06960129       7.44597206       0.08127640      -0.14287484      -2.20100681
C        4.53969044       2.79888763       0.44901376       3.36286483       3.57812920       3.61592080
C        1.19444284       7.76857359       3.55683601       5.27156243      -1.35253856       1.49043702
C        3.30823351       2.55888043       8.67480086       0.76048456       1.58983423      -5.83575766
C        6.25452410       5.05860174       6.35438360       0.82316498      -0.34192085       1.34720790
C        9.05476721       3.73433620       3.39620123       1.58860495       1.85897713      -1.20026195
C        2.76732077       4.82897923       9.46122647      22.88768393     -24.27443908     -30.73714949
C        5.28516879       9.28280858       9.39558578      -2.24393413       3.46607868      -5.30129999
C        0.48530409       0.94504245       1.47500645       0.45403084       0.15237913      -4.41240395
C        1.77735676       1.66726969       2.10173417      -3.70169408      -2.59485534      -0.86979251
C        6.47739271       0.02588994       6.46299066      -1.48838989       5.58509474      -8.18649313
C        3.86588610       2.60811058       7.39659517      -1.02934908       1.11523063       0.98662641
C        0.64639584       9.41577051       1.93324727      -0.38863866       5.84417675      -3.48371283
C        5.15350345       5.13563027       5.35520422       0.77120027       0.14539074      -0.32798765
C        7.27318314       1.73112887       7.66827908      -1.45489692      -3.62828344       0.15521510
C        7.73120892       0.52378298       8.30161044       0.56209641       4.13447168       2.46863672
C        8.73019404       3.67958935       8.05702536      -3.33607476      -0.15608541      -0.14504987
C        2.24311447       8.95764624       6.35842445      -1.91182034      -1.83880332       4.46949980
C        0.33471676       2.81032036       5.55792621       4.02254793       2.57077927      -8.28113143
C        6.06377922       5.74792539       9.75520206      -1.64587577      -1.16090817      -7.38410791
C        7.60190373       5.69325616       6.15125114       0.89493755      -0.15887502      -1.18184448
C        2.68485284       9.19534586       5.03481063      -7.43288940     -17.95521077       3.08167267
C        2.82912467       4.95629405       3.27015580      -0.24332960      -1.77696616      -1.66173361
C        0.51559896       8.90945503       3.22425266      10.89190101      -3.72470737      -7.26993471
C        9.05806287       7.33265187       2.59389085      -6.38101236      -2.38499747      -0.16949371
C        4.37246359       7.34833223       5.53638618      -2.22638221      -1.06439488      -1.84086639
C        8.12855463       4.29189381       5.81292251       0.71925824       0.56893336      -0.11634075
C        9.31421132       3.87633385       6.59886112      -1.61125683       0.48087393       0.62748835
C        9.98026039       3.38863969       0.12747291      -3.10231961       1.31084139      12.61751438
C        4.13782339       1.54099049       2.34943483      -0.85820639      -2.62236039      -0.16750694
C        6.05886659       0.72337341       3.87132803      -0.68852646       4.04701464      -1.43695529
C        7.77259762       9.46107711       1.60072821     -10.11361257     -44.60080880      19.62904846
C        1.01340891       8.32126663       6.89026130       0.23403620       1.50742975       0.53028747
C        7.92521440       9.21352822       7.85367546       2.95734370      -1.90150213      -2.05545778
C        5.60803061       9.39074750       7.88096740       0.67096061      -0.12397115       2.75878765
C        6.52759990       3.55639992       9.03104375       1.29553558      -5.49018901       0.30092180
C        1.13288111       7.75785055       8.21122741       0.86109109       1.91498168      -2.65800337
C        5.53254108       1.54180421       9.51060253     -25.41594689     -42.94194650     -39.77697622
C        6.61518519       7.10497316       9.43068715      -1.45250795      -3.28584677      -3.27845741
C        8.23173812       9.04800693       9.29234916       2.12441649      -3.93351720      -1.18237315
C        9.11024870       9.93802614       5.43732160     -46.06260769      -3.61062639       7.07072702
C        1.18346009       5.24256125       1.10009114       2.48777230      -3.42554613      -0.79539786
C        2.94520584       6.33797938       0.30797712       7.64102896      10.13177074       8.15853976
C        2.56578507       8.08725818       3.96906947      -0.31630764      -1.19992221      -1.73850789
C        4.30984691       6.37279191       0.61169688      -5.38495918      -1.34904735       3.24510419
C        5.04696044       5.57112864       8.66960059      -0.29237445       0.35791892      -2.53290116
C        4.93590315       0.48622167       2.82796661       3.02669330       2.32391385       0.94242051
C        2.03236937       1.30835040       4.76108579      -0.16880735       0.69996478      -3.85691606
C        7.91064668       0.38238425       1.26122958       6.85535719      44.94670743     -13.52712741
159
Lattice="10.0 0.0 0.0 0.0 10.0 0.0 0.0 0.0 10.0" Properties=species:S:1:pos:R:3:forces:R:3 Time=2.0 energy=-200.3825581230527 stress="-0.409485625483256 -0.019898098425697102 0.05418931807617384 -0.019898098425697102 -0.3665583183451909 0.05057805689397075 0.05418931807617384 0.05057805689397075 -0.3563966927846784" pbc="T T T"
C        0.22316979       9.89819749       4.18437402      30.60562891       8.36658348      10.23462391
C        9.51886951       2.57886765       3.83547795       6.60972418      -4.19977798       2.98846704
C        3.30175798       1.99572218       0.08328219     -25.02372669      -4.12417139      23.18760871
C        4.15490738       2.93456199       3.00142251      -1.69377605       0.65854354       2.69978165
C        0.14997498       8.85114268       0.81111293      -0.81601009       1.73181845       4.06655467
C        4.50631564       9.14410873       3.31073389      -2.57892624       3.22101092      -0.03881939
C        7.31586887       7.35203571       1.01824078      -1.75659847      -1.47502254      -0.39116216
C        9.67388256       2.34798667       6.59461564      -6.79142415      -3.22786833       4.74253504
C        3.91222947       9.91950428       9.71421110       1.03329083      -4.92184455      -0.52790317
C        9.42708467       4.46711273       0.96880007      -0.90233819      -0.64941448      -0.35533443
C        3.00435893       0.26342890       4.66798951      -5.47697108      17.78245110      -3.46765154
C        0.72823573       6.40571092       1.63721221       0.66639267       0.31159127       0.94331967
C        0.91253270       5.49873561       7.41681757       1.92473178      -2.15382088       1.17569163
C        0.16983926       9.82696484       5.47064818      29.80002206      -4.47702498       5.44083240
C        9.23619247       7.04197111       9.40915067      -6.10023265      -4.18943133      -7.48777112
C        1.60421859       5.49426302       3.70841431      -0.30247162      -0.43746437       1.61348477
C        5.47799485       7.93848138       9.72506225      -5.19672697       2.78387425     -15.05858450
C        9.73726080       2.65259636       8.20856424      -1.44338301      -4.63980550       0.65767879
C        6.44026441       8.75726609       5.73653330      -0.79425233      -1.47852700       1.21490513
C        7.75861116       8.06722028       2.22317462       4.88190961       0.46443888      -0.66500997
C        2.00482123       3.12355923       1.71072766      -0.36326733      -2.02576311      -0.07319396
C        2.96565275       9.38995266       8.73612373      -0.69917942       1.34097167       0.38237421
C        9.23587214       9.40914953       6.93442315       1.71435459      -3.22324947       0.48572906
C        6.16449010       5.38926118       3.06936756       1.87747506      -0.26238118       1.26017978
C        2.22055435       3.44861631       9.27195087       0.66296491      18.87311183     -28.42795083
C        9.53696740       1.61095858       9.35770433      -2.34985634       4.72997685      -9.16986763
C        1.12297963       1.62295158       5.75593332       5.35712345       1.61131584       0.11655222
C        1.23772170       1.38420874       3.51050435       4.02555561       3.52866090       0.34957128
C        0.93274592       6.32885794       8.65297615       1.10893043       1.59085591      -4.45740979
C        4.69236365       7.71783506       0.77756276      -2.77340158      -4.55836397       4.47576597
C        9.27803159       6.99710940       4.94762737      -1.14188398      -5.80672831       2.40776997
C        7.57531152       3.72992302       0.15051074      -3.05135276      -3.27904452       4.26415367
C        8.78800863       1.60249890       1.19389556       1.08969579      -0.31221170       5.02005855
C        7.40720821       1.31633305       6.25581023      -2.23788564      -0.01547497      -0.86875840
C        7.50683657       1.58658326       2.03701266      -0.10692069       2.33823891       0.08603549
C        8.50011849       4.74915042       9.07659924       5.92077499       3.69630229     -20.81075994
C        5.89457020       1.28087082       8.18012782      -0.49445152      -1.34303602      -4.42980101
C        7.17609304       2.85309178       4.21673245      -1.60027084      -0.14579041       0.36016062
C        1.41182785       5.49261930       5.14962058      -1.05033239       1.01622311       1.01940798
C        5.80585063       8.91864045       2.89593920       2.89825910      -0.59602396      -0.74016673
C        6.64267787       2.44445938       5.48594341      -0.30781530       0.36249499       0.75753554
C        4.40289621       3.84240921       5.38541710      -0.41372635      -0.56382046      -1.84942355
C        6.30358817       5.04277131       1.62963788      -1.17471935      -0.10782169       5.00866327
C        4.80783060       1.56530330       7.21635737       0.13174951      -0.19321271      -0.93960784
C        2.24050116       2.79157208       0.11933599       0.23039194     -18.72041252      32.41474115
C        7.96840426       4.08824135       4.24706297      -0.22884418       1.69347775       1.41665870
C        7.36984431       1.55748743       3.52148746      -0.32404819      -0.49075300      -0.73632776
C        7.58806744       5.51923012       3.71054328      -2.28342698       0.26098985       0.04442149
C        3.24421721       9.26915210       7.37009516      -0.59719455      -0.41973268      -0.74195009
C        7.96282182       6.37461144       7.43044568       1.60063730      -0.54383326      -1.03920852
C        6.25050387       9.45303500       1.56665082      -2.53707631      -2.74969889      -0.49219847
C        7.53809959       5.91674006       1.28711911       2.18165797       0.66755776       1.84065849
C        5.36759604       1.67334316       4.87805855       2.32677433       0.82410740       1.24237612
C        4.17561497       1.87835581       9.52537402      21.64571778      -3.85227915     -19.22723873
C        8.41969687       0.43143234       9.53745117      -4.42749408       4.34650982      -1.35697519
C        8.78332126       1.27708191       4.16391405      -2.26523888       4.62125655      -3.05867618
C        9.50118117       0.13753477       3.33248344     -16.73416320      16.26003357     -15.50939546
C        4.91275402       2.65397899       1.86495743       3.64374978      -1.38500533      -3.11528468
C        6.73655134       8.57031767       7.32845992       0.01660183      -3.38635801       0.13888075
C        4.54359794       6.14140190       6.33097529       0.24067689      -0.07380301       0.72653281
C        0.79889149       7.41802259       0.59200484      36.01347978     -10.15127456      18.51101914
C        9.56449772       4.75926296       2.43459275      -4.99026164      -3.90050649       0.77255197
C        0.89916117       3.98495325       1.54879401      -1.46122080      -0.95922887       1.80704645
C        8.46816194       5.88300470       2.56755108       0.81419452       0.61245682      -1.39727719
C        3.10964758       1.11560635       1.35363643      -1.79780632      -1.28449472       3.09308252
C        0.78956969       1.00947565       6.97880500       1.01401357      -2.56259163       1.94216592
C        4.55943057       9.10541715       7.07260493      -3.04060315      -0.00681228      -0.98854281
C        5.09781422       0.78699744       6.02728791       1.83801391       3.02802158       1.55664729
C        7.03068898       4.78203788       9.31463180      -5.88732666       3.87878031      -3.64126619
C        4.96593807       5.17738691       0.76673593       4.94857589       0.21611429       1.52879991
C        2.06569536       5.47098620       6.44174471      -2.26700045      -0.11312287       0.21474332
C        3.41018464       5.22085866       7.00478167       0.52666975      -0.57475480      -0.06066504
C        6.75020831       7.05217355       7.80639314       0.07211708       1.08892577       2.55366798
C        2.98206736       3.69823802       2.65086936      -0.01711113       2.20255837       0.40033873
C        5.18861770       5.56864921       3.94759830      -0.15351386      -0.79833171      -0.33060175
C        9.33200133       9.19552476       4.10941883     -23.24604895     -17.29918843       4.60157315
C        3.76045825       5.24164538       8.47621671      -0.63343798      -0.16819606      -1.22569918
C        2.23587385       7.67854858       0.30911152       1.09025247       5.33476884       2.71612394
C        0.24796642       0.87899674       0.13671259     -49.58054738     -31.81338387      68.75603359
C        4.10357199       9.62752345       4.69237698       9.74073067      -5.92142029       0.79583585
C        0.72815318       3.44959505       9.10202694       3.74466310       4.05106393     -10.17874106
C        7.75846422       6.57077476       4.91531652       0.81783184      -1.29834717       1.85633754
C        6.82361611       8.17544548       3.39019060       0.99732492      -0.50617474       1.46238494
C        9.59603654       9.24713956       9.66255174      -0.94912733       1.54727761      -3.83555164
C        8.24392786       5.07566877       0.20890861       1.94648063       2.09545689      18.91276117
C        9.05404622       6.03760972       8.41051313      -2.77534072       2.24997004      -0.37313068
C        0.99917728       6.51949618       2.96271246       2.54063590       0.45751408       1.31099447
C        1.85161443       8.64505167       9.08752302       1.68691668      -2.60113323       1.40295625
C        6.39517532       2.39903138       1.49093576      -0.90363995       2.14579714       1.13893372
C        9.84413093       7.68868875       0.27993849     -29.92193259       6.41295138      -9.53957139
C        3.36702813       8.65472009       2.65579914      -2.15268104      -1.93068765       0.39224162
C        8.83132926       1.18926760       5.76623938      -8.58316534       5.50659453      -2.04699500
C        3.76791510       3.75328464       6.56556547       0.06430792      -0.00653444       0.75655565
C        0.48973476       4.13269965       7.81073281       2.28246192       5.11546301      -3.95976768
C        6.91054314       3.75593873       1.39743078       0.71355781      -1.36419926       1.05559209
C        6.87359204       3.66212258       6.48111353       0.07682092      -0.62961921      -0.68211039
C        2.19584424       5.18443845       0.25322434      -6.06655692      -3.47356533      31.63391626
C        5.95527395       2.24111991       0.12791370      12.28465053      20.98854047      12.83002775
C        7.33674529       3.15447034       7.85985009      -1.36397281      -0.96175259      -0.95582624
C        1.86994680       6.04695115       9.64750334     -13.36095202      14.12296159     -22.71906896
C        0.06315761       5.83733127       5.38171311      -0.44426686       3.43149884      -0.88343055
C        3.78002946       5.80856627       3.77092545       0.15489115       1.41777772       0.14418842
C        4.52353664       2.80008243       4.40010007       0.31504916       0.36229000       0.54736302
C        6.09125932       8.19702398       0.75394565       7.99915816       2.53033331      16.26333452
C        9.31732018       7.87396832       3.87038421       0.68679966      -1.73176133       2.24717789
C        7.02972453       7.83147767       4.73407354      -0.68227220       1.39738176      -0.28557282
C        4.87621455       8.73184843       5.71742525       0.29321686      -3.10015845       0.50630159
C        0.83744496       1.14697124       9.52782799      60.54695367      29.92492465     -66.06577495
C        3.51102950       7.03864791       4.44812102       0.48283742      -0.60923785       0.56909136
C        3.44833842       8.23035912       1.34303730      -2.18609001       2.29113701       0.89202786
C        5.63242867       6.07048363       7.45156053      -0.39206478      -0.31233144      -2.49783297
C        4.54796163       2.80129426       0.44889781       2.81163473       5.41620676       4.27557394
C        1.19787548       7.76949946       3.55732543       5.37092525      -1.57630918       1.45890078
C        3.30573785       2.55382382       8.66122524       1.31644960       1.90180682      -8.63903828
C        6.24955523       5.06078378       6.35203670       0.98610015      -0.27984704       1.46452856
C        9.05233100       3.73003954       3.39203086       1.60492484       2.14350634      -1.35594562
C        2.78752252       4.81387318       9.43096800      15.05624590     -18.15927964     -21.85633848
C        5.27766866       9.28786084       9.39362786      -2.25946942       3.28525766      -5.63091429
C        0.48685588       0.93731607       1.47786670       0.81131240      -0.75647135       3.75470586
C        1.77692560       1.66664937       2.09523864      -3.00572634      -2.46856923       0.04401752