159
Lattice="10.0 0.0 0.0 0.0 10.0 0.0 0.0 0.0 10.0" Properties=species:S:1:pos:R:3:forces:R:3 Time=1.0 energy=72.94023669615531 pbc="T T T"
C        0.16311452       9.88399725       4.15623920      18.69214919       5.93143533       8.49295854
C        9.50245749       2.56812285       3.84685782      -3.46920732       3.71793214      -1.51403244
C        3.35647337       1.97170082       0.04868431     -30.17468418       5.66822740      21.75210071
C        4.15185325       2.93184812       2.99904661      -1.33733913      -0.54371506      -0.59322767
C        0.15989341       8.84454468       0.79088300      -2.52411398       2.48087878       0.45950571
C        4.49661938       9.14315947       3.30839144      -0.42549186       1.59130836      -4.88945078
C        7.32463059       7.35696605       1.02527472       0.50458142      -2.14606019       4.56649428
C        9.68227431       2.36245625       6.58909790      -0.72259122       0.58255404      -5.27464936
C        3.92664956       9.93757037       9.72489775      -0.03116275      -7.99645286      -6.28509721
C        9.43656751       4.45702951       0.98213512       2.10673204      -3.43400408       1.65325335
C        3.00970162       0.24326388       4.67361389      -1.28986198      -1.78564476       2.61617173
C        0.72692912       6.41066700       1.63632920       5.85757222      -6.46484601       3.11493709
C        0.91752386       5.48635742       7.42222238       2.92260464      -1.70258754       3.04783579
C        0.12705588       9.83750047       5.46338930      11.94691720      -1.51460164       0.56108826
C        9.24567254       7.03677506       9.42679362      -1.89900495      -2.25941156      -1.64344309
C        1.61433559       5.48069548       3.69997855       3.18937353       1.97452727       0.12851566
C        5.49927823       7.92382974       9.73877682      -0.79791250       3.30674799       0.19802714
C        9.75834229       2.66975512       8.19794003      -2.32974625       3.48238352      -0.43494357
C        6.43063747       8.76291418       5.74295981      -1.34853004       1.07221271       1.20931224
C        7.77607589       8.07420889       2.24338594      -0.45362570      -0.01489509      -0.71967721
C        2.01645562       3.10804977       1.69911115      -1.12258392      -0.10566452       2.56102735
C        2.95738980       9.40261620       8.73661026      -0.63906843      -3.83759981      -2.84255062
C        9.23457040       9.40519477       6.92450850      -1.72363922      -0.20157614       0.73218350
C        6.16280431       5.38867254       3.08504543      -3.18681654       0.91838686       5.81809959
C        2.22422498       3.39215019       9.31062836       0.54879567      14.75183590     -22.24112493
C        9.53170880       1.61107796       9.35774903       6.88260625      -4.14068606       0.01810532
C        1.11279590       1.63098792       5.74946733       1.15597772      -2.06924511       0.93584602
C        1.23749432       1.38222409       3.49416759       5.07796099       1.71554903       0.21063470
C        0.91724720       6.32536538       8.67078375       5.41894350       2.69299100      -4.12190056
C        4.68308361       7.73458084       0.76928398      -2.39942883      -6.12886388       0.39521885
C        9.26352769       6.99912860       4.95031806      -0.72943401      -1.75198375      -4.28283082
C        7.56092360       3.72696809       0.13586177      -4.83722145       1.61427917      -0.66318269
C        8.79635250       1.58962171       1.17703179      -5.89724083      -2.29574569       3.81017689
C        7.39788943       1.32384578       6.26858589      -0.20550827       1.49463681       1.09073913
C        7.49125658       1.57051253       2.05434781      -0.29122024       1.29984423      -0.02129204
C        8.49186398       4.74981164       9.10102127       0.22621196       3.26358151      -3.52851557
C        5.89920061       1.28623987       8.17310686      -4.64949303       1.34945464      -1.63222693
C        7.17852934       2.85746061       4.22958565       0.72059122      -3.34233244       4.62487967
C        1.42533911       5.50386257       5.15477531      -4.72071443       3.38542832       0.82080979
C        5.79817030       8.93252889       2.88663558       5.30154710      -4.74519820      -0.15710292
C        6.65892340       2.46373138       5.48347992       2.81373304       0.51906962      -3.47631100
C        4.40041286       3.83640586       5.36700799      -1.50286843      -2.22485189       3.58940270
C        6.29446747       5.04893172       1.61610211       2.94501607      -1.68298587       3.93081922
C        4.81423406       1.56741257       7.22544560       1.23292463       1.22655302       0.15637328
C        2.23117135       2.84154281       0.08018885       3.10635388     -17.07966602      25.96647805
C        7.95529743       4.10332321       4.24297194       1.74172219      -2.39690907      -1.81991783
C        7.37443928       1.54674573       3.53120083       0.40944809       2.58685524      -1.00648018
C        7.57729437       5.53575281       3.71366093      -0.36119487       0.08972389      -2.81273844
C        3.25555898       9.27362115       7.36064399       3.42140329      -3.25714555       0.96294085
C        7.95897574       6.36639220       7.40653260      -5.27326007       0.74684940       0.18909317
C        6.24610132       9.44223758       1.58496161      -2.50195731      -5.88631454       2.23622828
C        7.54986008       5.91915513       1.30442869      -0.04322642       1.64515943       1.36321391
C        5.38696766       1.67821998       4.87768811       0.85170645      -0.69669237       0.30159746
C        4.12014164       1.88906951       9.55174073      28.31222054      -1.08714154     -19.88478861
C        8.44836025       0.43728664       9.52153107      -4.29120889      -2.70991231      -4.23695021
C        8.80298035       1.25424436       4.18475667      -3.17820253       9.63900309      -0.27814903
C        9.51182388       0.13176276       3.34295956      -9.10359503       5.86344235      -7.83431197
C        4.93367349       2.66801277       1.85636227      -3.11521497      -4.17086920       2.67987814
C        6.73608893       8.58603233       7.34434289      -0.19704485       2.24714607       1.46563032
C        4.54183868       6.12492402       6.31555849       1.23373123       0.33794782      -1.59459041
C        0.73075204       7.43650709       0.55712610      40.15857440     -11.60783122      16.25729905
C        9.56592209       4.75363189       2.45344230      -5.08261415      -3.40391239      -0.12758076
C        0.88750829       3.96879975       1.55052751       4.63157193       5.01418157      -2.67847286
C        8.45217549       5.88284739       2.56071973      -2.82379230       0.12098279       1.22561622
C        3.09555552       1.11171200       1.35900969       0.23691301       2.96123915       4.44607042
C        0.77893251       0.99878147       6.96908935       1.87597164       3.68279433      -8.17595795
C        4.54854635       9.08964804       7.06267028      -4.23032345       2.89869199       0.75494500
C        5.08917852       0.76310590       6.00176826       2.27665142       7.36021824       2.07472770
C        7.02961723       4.78796788       9.33046778      -0.61195332      -3.78901235       1.41172271
C        4.94886620       5.16823883       0.77267024       1.03139905       7.28591951      -1.08285134
C        2.06437324       5.47594576       6.43997621      -2.64415401      -1.00665534       0.17678939
C        3.42338538       5.21396487       7.01641307      -0.72103724      -2.07723358       1.39004756
C        6.75739058       7.06163512       7.81177918       2.48929148      -4.31069632      -1.86079750
C        2.98134135       3.71009649       2.64833623       0.74640532       2.23405151       1.77360117
C        5.19094458       5.56235858       3.95397604       1.23939803      -2.62312713      -3.84145712
C        9.36149582       9.21328520       4.11931011     -12.33868384     -13.83441836      -1.22274603
C        3.75401095       5.24122584       8.45459256       5.38592159       0.45333465       0.16735673
C        2.23120465       7.67680772       0.29161996      -1.30643940      -2.40476776      -0.08411429
C        0.29648032       0.92339905       0.06679242     -92.16664389     -41.49931245     100.03404982
C        4.10068184       9.62864370       4.69265518      -2.39284041      -0.22589128       0.58468322
C        0.72943963       3.44688748       9.10485969      -4.15299552       3.82304945       0.75815785
C        7.76581146       6.55922819       4.92492343       0.51688019       1.02918118       0.19038821
C        6.81958137       8.19430169       3.39723540      -1.98238556       2.94623089       0.91647972
C        9.59203752       9.24154043       9.66126606      -1.82372510       0.00401469       2.48587601
C        8.24315839       5.08120566       0.19178965      -0.63086365      -1.52214419       1.92873071
C        9.05517605       6.01973736       8.42036345      -3.14158634       3.69084132       2.89094093
C        0.98528088       6.52351726       2.94919033       2.79092065       1.68615146      -0.59924162
C        1.84108173       8.64132359       9.09951942       4.27554366      -2.90591357      -3.45366476
C        6.39587917       2.40850973       1.49667643       1.18531077       4.62685075      -1.20540727
C        9.89641316       7.66737485       0.30852463     -35.32165553       6.42829483     -14.97209159
C        3.38242388       8.65818249       2.65729281       4.42739666      -1.75999798      -2.19030433
C        8.83011855       1.18598024       5.78111444      -5.87320303       1.20244982      -3.40895892
C        3.75778839       3.75981976       6.57600379       5.16972572      -2.56089831      -3.38630878
C        0.49818352       4.11884607       7.82522726       2.00257188       2.64044152       1.05017381
C        6.89691363       3.75552848       1.40819033      -3.59080706       0.04178218      -2.14336160
C        6.88078619       3.64930129       6.46834619       2.69497519       1.20515706      -0.86726517
C        2.20412288       5.19221964       0.23044206      -5.98338727      -5.83879145      19.84342812
C        5.91914520       2.19637548       0.06949405      11.09000671      16.64467585      20.21536004
C        7.31577530       3.13555870       7.84866665       0.94647448      -2.29197052      -1.49043140
C        1.89018590       6.02023587       9.67366871      -3.23948749      15.62644014     -10.65773046
C        0.06821365       5.82071894       5.36451357       3.90133336       2.25591276      -2.60023478
C        3.76273859       5.80785242       3.77379629      -0.03402829       0.35464928       1.46734814
C        4.52607394       2.79996963       4.38257466       1.81218108       2.29143332       1.93515253
C        6.08781602       8.19789260       0.71933580      -0.18238792      -0.41600128       6.46188737
C        9.32676000       7.89156007       3.87184305      -3.44951278      -5.62237556       0.61028710
C        7.02392322       7.82757513       4.75260292      -0.26058995       1.15435467      -4.91534125
C        4.86605627       8.73855692       5.70644223      -1.84582234      -4.25023755       4.26533179
C        0.77613245       1.13819377       9.59408303      87.29290028      47.10472536     -98.36438555
C        3.51404253       7.05958227       4.45257762       2.22235002      -0.76562243       0.90955981
C        3.44776258       8.22944612       1.33033931       4.21556181       1.84951686       4.24595602
C        5.61388449       6.07235758       7.43622397      -0.85570842      -1.49688535       2.66435092
C        4.52930914       2.80594574       0.45561059       0.79554032       0.96856904       1.58334249
C        1.18971577       7.77389707       3.56002116       3.29173703      -0.97442318      -2.42676308
C        3.31018542       2.56844935       8.68087229       2.76354362       0.05408518      -4.79749786
C        6.26016505       5.05936743       6.35313341       1.85847222       0.42897498      -1.26250961
C        9.06000534       3.73159201       3.39543036      -0.13124168      -3.89232031       4.65130769
C        2.76708842       4.81697940       9.46206202      10.83702913     -10.17946762     -17.28162261
C        5.28314649       9.28732403       9.39162863      -3.01612446       0.97341058      -4.94028164
C        0.48103287       0.95322050       1.46945643       1.35195797      -3.65908314       1.53275794
C        1.77248717       1.67413785       2.11081932      -0.88874924       1.40955108      -0.42863038
C        6.47092592       0.02036769       6.45778096      -0.73746293      -0.57498602      -5.73753646
C        3.86648056       2.60832317       7.39844995       3.19791932       0.21242578       1.52480022
C        0.63707939       9.41040947       1.92357655      -4.58766831      -0.60463799      -3.67047628
C        5.14844501       5.13211276       5.35453344      -0.16164287      -0.43704452       0.31437421
C        7.27457031       1.73333540       7.66784766      -0.99024334      -2.92135945      -0.68453867
C        7.73199346       0.53104940       8.31421863       3.62502380      -1.58728348       0.93402387
C        8.73066429       3.66994172       8.05641689      -0.77712818      -2.09128804       0.65945275
C        2.24455310       8.94508554       6.36113006       2.58927324       0.11993069       3.72187307
C        0.33350188       2.80930027       5.55355257      -0.33398281      -5.58886367       3.72769988
C        6.07312279       5.75868694       9.75703596      -1.50050434       0.88254051      -6.15683302
C        7.60391297       5.69659694       6.14669004      -0.49737499      -0.06091424      -0.20929582
C        2.69768173       9.19854424       5.04584947      -0.13906294      -1.46192176       1.57919099
C        2.82792066       4.95004292       3.26017692       0.46920618       0.79939242       1.97810301
C        0.52145004       8.91393134       3.22609439       7.49568077      -4.82297246      -7.46911562
C        9.06375489       7.33815499       2.59660305      -4.87147072       1.65094081       4.35468308
C        4.37833580       7.35419366       5.52957662      -4.26035973      -2.58719130      -4.55034428
C        8.13126382       4.29798267       5.81173252      -2.03938635       0.18799854       1.84383528
C        9.31695007       3.86767112       6.60070431      -2.25293971      -0.72816798       1.14344982
C        9.98616849       3.37763125       0.12802818       2.66289841       4.73746760      -0.22733568
C        4.13965203       1.53872847       2.36021901       1.96599301      -0.11262234      -2.25149083
C        6.06328252       0.72314783       3.86855913      -2.75643818       5.13430573      -0.85951978
C        7.77282625       9.45727203       1.59960959      -4.76521987     -14.61150061       5.50153061
C        1.00978335       8.31636188       6.88334459       6.51548103      -0.41889117       4.55320999
C        7.92817934       9.21496224       7.85049015      -1.87352282       5.68955491       0.60913579
C        5.61343140       9.38164756       7.88312350      -4.04487492      -3.74734118      -1.83026397
C        6.53717016       3.56929394       9.02298035       5.32819956       1.86282698       0.75959394
C        1.13626146       7.75667735       8.20837910       3.55574395       3.53403298      -0.97109002
C        5.53566263       1.54337324       9.51479748     -10.01490142     -14.68598829     -23.68878934
C        6.62071053       7.11241896       9.43919612      -3.21401359      -3.09702515      -0.56863082
C        8.23835286       9.04097827       9.29819859       5.01564743       2.86225754       0.66360409
C        9.11131642       9.95083142       5.44231133     -10.54200301       2.64016493       6.69572303
C        1.18188098       5.23881752       1.10202674      -2.42975744      -1.65816832       5.05149255
C        2.94371340       6.33027610       0.30432072       1.11254712       9.74757571      -0.37405786
C        2.55811559       8.08256129       3.96569197       0.50636246      -3.70931688       0.42973470
C        4.30011882       6.37301250       0.61461554      -2.72411679      -1.81287529       0.07964258
C        5.05716987       5.56511928       8.66832257      -4.45352345       1.29792518      -6.61173111
C        4.93827299       0.48251875       2.82548193       0.25878084       4.80701718       3.89940999
C        2.03265595       1.30726248       4.75919356      -4.55703094      -1.25473181      -0.95899115
C        7.89899182       0.38613658       1.26554362       5.58669595      15.35322500      -1.51232906
159
Lattice="10.0 0.0 0.0 0.0 10.0 0.0 0.0 0.0 10.0" Properties=species:S:1:pos:R:3:forces:R:3 Time=2.0 energy=38.1725627307393 pbc="T T T"
C        0.19720830       9.88881298       4.17936321       9.71729673       2.18112800       2.86199085
C        9.49981196       2.57047068       3.85056639      -3.53294795       3.68666064      -1.63147182
C        3.30706575       1.97098028       0.07596359     -11.41798672       3.18773084      10.43863794
C        4.14751507       2.92800199       3.00172741      -1.23689773      -0.53878024      -0.30033165
C        0.16552914       8.84030294       0.79027067      -2.85361852       2.09115580       0.94446197
C        4.49813891       9.15238106       3.30672861      -0.42877653       1.49670570      -4.59554932
C        7.32136206       7.36111828       1.02192316       0.11141965      -2.40897162       4.02406881
C        9.67206700       2.36160014       6.59406979      -0.66757609       0.57726483      -5.37578635
C        3.92969209       9.93757118       9.71423269       0.29168428      -7.72972196      -6.29112296
C        9.43651154       4.45801921       0.98824890       1.79987833      -3.44166416       1.64855374
C        3.00623282       0.26113602       4.67830470      -1.33567770      -3.66727175       3.02023044
C        0.72626681       6.41469283       1.63724192       5.59574382      -5.20252129       2.84463956
C        0.92737273       5.48436866       7.42459000       2.83428393      -2.07146285       2.96084909
C        0.17484909       9.83620480       5.47019352       3.94940510      -0.17250837      -0.07345264
C        9.24308716       7.03631073       9.42968412      -1.19179345      -1.97315017      -0.89334297
C        1.62298166       5.47921196       3.70600899       2.98234391       2.06650881      -0.11877609
C        5.49499847       7.93039245       9.73019041      -0.50337745       3.29575147       1.35470803
C        9.76055681       2.67408683       8.19444486      -2.42530233       3.11825464      -0.12795767
C        6.43133310       8.76241338       5.73776897      -1.30356297       1.08237383       1.07138839
C        7.78322757       8.08095413       2.24701568      -0.15608986       0.86078146      -0.81635770
C        2.01862985       3.10559999       1.70079702      -1.24839247      -0.31832376       1.80583919
C        2.95811647       9.40381804       8.73435986      -0.33497081      -4.07857834      -2.87262847
C        9.22897475       9.40497268       6.91637028      -1.99625878      -0.19052571       0.42910025
C        6.16567081       5.38951940       3.09348324      -3.37638726       0.96072321       5.65119420
C        2.22453764       3.42220947       9.25786595       1.11230927       1.53360881      -3.37708644
C        9.53087286       1.60634344       9.35843272       1.41006174      -2.50669812      -0.14024699
C        1.11558599       1.63286320       5.74840930       1.08960343      -2.17099069       0.83909836
C        1.23772187       1.38371280       3.49019992       4.99938081       1.72287801       0.11244650
C        0.92002882       6.32021765       8.66783953       5.85769130       2.39187641      -3.58541665
C        4.68160735       7.73261853       0.77242735      -2.46322148      -5.87069858       0.23615380
C        9.26190786       6.99481753       4.95624954      -0.66381325      -2.35703040      -3.91294117
C        7.54954604       3.71832854       0.14010216      -4.61983592       1.67112429      -0.20935963
C        8.79479342       1.58378951       1.17811375      -6.52102123      -2.69456973       4.17894415
C        7.39918774       1.33177207       6.27193363       0.09646707       1.47348715       0.98001972
C        7.49133234       1.57153935       2.05896873      -0.65571511       0.33445928       0.13282261
C        8.50357869       4.76108289       9.08976226       0.33094379       4.01247050      -2.77043566
C        5.90034243       1.28432784       8.17172648      -4.85465809       1.54853042      -0.94159098
C        7.17401803       2.85517200       4.23897432       0.73445873      -3.20193582       4.83577978
C        1.42135255       5.51277762       5.16197392      -4.81628700       3.26525261       0.76122954
C        5.79846707       8.92844365       2.88971403       5.25022718      -4.81729305       0.03557864
C        6.66467507       2.47066317       5.47768588       2.87675126       0.58568101      -3.72773621
C        4.40343080       3.84253727       5.36530396      -1.54212334      -2.14433776       3.75649626
C        6.29452458       5.04874983       1.62207683       2.94379346      -1.56248908       3.99000960
C        4.81702938       1.56354449       7.22408736       1.12010308       1.14124775      -0.11802965
C        2.23331241       2.80573849       0.14339659       3.67532162      -3.47207196       8.23900457
C        7.95218570       4.10472314       4.24807766       1.57146141      -2.34198419      -1.59732481
C        7.36864423       1.54624099       3.52489593       0.39104873       2.39636291      -1.18046644
C        7.57846931       5.53741739       3.71401338      -0.35797224       0.10337877      -2.73497658
C        3.25800374       9.26466749       7.36083002       3.42736279      -3.22916690       1.03559692
C        7.95797256       6.36317260       7.39831671      -5.61018080       0.85675815      -0.01971438
C        6.24064440       9.42933959       1.59095179      -1.55295569      -5.69456095       2.02836664
C        7.55302762       5.92503694       1.31149891      -0.15301066       1.30137938       1.27367011
C        5.39596638       1.67327266       4.87715057       0.69829745      -0.98234242       0.32531364
C        4.16839139       1.88762079       9.52014483       8.09808901       1.30653384      -6.79154609
C        8.45048882       0.43378792       9.51409993      -3.88568950      -2.12160956      -4.08273366
C        8.80568512       1.26141123       4.18804512      -2.85670346       9.24945619      -0.16202008
C        9.49390076       0.15117796       3.31371291      -5.52757944       2.44116413      -2.50794877
C        4.94083746       2.65817692       1.86248700      -3.95246613      -3.97564389       2.41035874
C        6.73792719       8.58923728       7.35084595      -0.19919248       2.27461518       1.68151440
C        4.53765010       6.12226170       6.30882737       1.34612127       0.34908323      -1.55350453
C        0.79435942       7.42020345       0.57788327      15.31039217      -4.83247415       8.92702246
C        9.55430585       4.74521942       2.46024540      -5.04790301      -3.53752997       0.00479753
C        0.88260433       3.96564699       1.54256567       4.28483614       5.26113813      -2.73913824
C        8.45112092       5.88597706       2.56694129      -2.94474205      -0.01884155       1.22554789
C        3.08934344       1.11513344       1.35478121       0.70100419       3.04777015       3.82720307
C        0.77925139       0.99960513       6.96337163       1.84213727       3.79069861      -8.07831233
C        4.54143373       9.08792297       7.06846848      -4.18836538       2.79289204       0.45427982
C        5.09317335       0.76530916       5.99653805       2.38895519       7.24869115       2.01592407
C        7.02440688       4.79437441       9.33226125      -0.53619773      -3.84936201       1.41810632
C        4.95048054       5.18079884       0.76450972       0.78649026       7.28225879      -1.03212772
C        2.06214786       5.47061371       6.44195914      -2.96625822      -0.87122181       0.21913362
C        3.42605636       5.21007403       7.02223129      -0.61920241      -2.04005267       1.53519898
C        6.76115373       7.05754571       7.80381089       2.52415342      -4.29091340      -1.87723591
C        2.98668014       3.71697462       2.65171329       0.77907211       2.36843295       1.91886713
C        5.19427281       5.56711568       3.94760677       1.45781611      -2.76515094      -3.73896766
C        9.33827151       9.18347801       4.12861168      -6.33753938      -7.09774735      -2.13317736
C        3.75233648       5.24317642       8.44663830       4.59822767       0.13389819       0.68226518
C        2.22415279       7.67267930       0.28833516      -2.37383357      -2.45716030      -0.21134701
C        0.23835518       0.89635861       0.12883043     -19.93749371      -9.43831468      30.68623903
C        4.11292384       9.63183636       4.68483560      -2.99203441       0.02681214       0.70809435
C        0.73723997       3.45073392       9.09466601      -3.55535055       3.64541963       0.26180900
C        7.76794157       6.55459231       4.92639173       0.71973477       0.80471741       0.26181050
C        6.81912261       8.20098207       3.40472477      -2.28893439       2.81991292       1.35095595
C        9.59124575       9.24646509       9.66271802      -1.91941855       0.07656181       2.40107355
C        8.23973225       5.07848201       0.20841297      -0.33523893      -1.75610704       0.85763697
C        9.05220177       6.01659796       8.42808645      -3.16055660       3.69235212       3.33672005
C        0.98666072       6.51986032       2.94897849       2.69303060       1.42421338      -0.61067826
C        1.84333057       8.63551566       9.09953049       4.16832975      -3.20740219      -3.83269510
C        6.39892641       2.41071396       1.49058127       0.84192931       4.23204254      -1.69858882
C        9.83751562       7.67756874       0.28195448      -9.67231050      -0.85021408      -7.88481029
C        3.38755940       8.65171589       2.65749066       4.32492585      -1.72653300      -2.46442690
C        8.81376560       1.19653777       5.78376434      -5.70202726       0.88920004      -3.20087787
C        3.76306713       3.75551058       6.57573919       5.11963223      -2.51420534      -3.40670463
C        0.50159213       4.12935036       7.81855797       1.97523530       3.05486309       0.86239514
C        6.89233433       3.74823818       1.40680286      -3.16555948       0.68854469      -2.18938207
C        6.88883809       3.65237876       6.46753039       2.69823635       1.23149701      -0.87159380
C        2.19837827       5.19205634       0.27134567      -3.09600308      -2.01377657       9.32369808
C        5.94590592       2.24383436       0.10645773       1.84095187       0.84093555       4.52785066
C        7.30853817       3.12726074       7.84683568       1.09167547      -2.15212372      -1.39572246
C        1.87378613       6.04574236       9.65509164      -0.80064079       9.84167089      -6.79650721
C        0.07044702       5.82383879       5.35436877       3.98519170       2.39756326      -2.53220106
C        3.75857792       5.80879301       3.78086838       0.18473069       0.79096669       1.25370287
C        4.52041056       2.79499879       4.37967203       1.79595111       2.39380781       1.64913752
C        6.09848355       8.20203710       0.72842762      -0.58473196      -0.96427240       5.55011548
C        9.33226432       7.89321390       3.86788600      -3.57412607      -5.06083881       0.66626232
C        7.02313194       7.83364185       4.75267334      -0.60726474       1.60134760      -4.90197399
C        4.85751118       8.73558429       5.71218033      -1.90115258      -4.35709106       4.06195914
C        0.84037429       1.17302001       9.52407239      21.09756921      13.41602233     -28.31590159
C        3.52041803       7.06569464       4.44562181       2.07836666      -1.08980182       0.99455876
C        3.44552356       8.22773618       1.33739265       4.35833980       2.03312347       4.71935805
C        5.60721618       6.07593837       7.43224272      -0.71235293      -1.59312338       2.58208786
C        4.52725668       2.81504643       0.46191720       0.84255426       0.67375872       1.68924283
C        1.18858205       7.77999157       3.56364135       3.26596997      -0.42374701      -2.90140811
C        3.30958714       2.57282099       8.67327488       3.88106573       0.30749216      -6.26169961
C        6.26064303       5.06228199       6.34949662       1.92127519       0.46829953      -1.12067411
C        9.06256656       3.72464780       3.39057309       0.06714493      -3.73180506       4.57988129
C        2.78600292       4.79030445       9.43366038       5.75678974      -6.86617424     -10.34877392
C        5.27366941       9.29686982       9.38576278      -3.20236211       0.95069493      -4.88339044
C        0.47815252       0.95349808       1.46676589      -0.02477740      -4.04769769       0.38468761
C        1.76720719       1.68029564       2.11338766      -0.83572443       1.43358883      -0.22235706
C        6.46388050       0.01659450       6.44951320      -0.72217424      -0.72973248      -5.84600516
C        3.86631661       2.60487177       7.39857906       2.87197082       0.36590463       2.01734406
C        0.62894496       9.41049351       1.91671808      -4.85196130      -0.82716944      -3.89260880
C        5.14115208       5.13469684       5.34761371      -0.23877205      -0.58426164       0.40103684