159
Time=1.00000000 pbc="T T T" Lattice="10.00000000 0.00000000 0.00000000 0.00000000 10.00000000 0.00000000 0.00000000 0.00000000 10.00000000" energy=69.04329395 virial="-600.98033641 61.57548029 -72.39105465 61.57548029 -651.43394084 -56.07830949 -72.39105465 -56.07830949 -732.85909862" stress="-0.58031755 0.06157548 -0.07239105 0.06157548 -0.63949363 -0.05607831 -0.07239105 -0.05607831 -0.71093273" Properties=species:S:1:pos:R:3:vel:R:3:forces:R:3
C 0.16940061 9.88764983 4.15418782 0.02279197 0.00306660 0.01228293 20.05798459 5.44441414 10.14583409
C 9.51000945 2.57378213 3.83850696 0.00208647 0.00945861 -0.00575757 -3.71707535 3.70091009 -1.50508630
C 3.35703880 1.98363015 0.05065367 -0.03004954 0.00961789 0.01570351 -30.02174544 6.01947618 21.35629964
C 4.15566846 2.93490096 2.99829470 -0.00010669 -0.00092327 0.00092659 -1.60625370 -0.40887856 -0.99118280
C 0.15117419 8.85089695 0.80025645 -0.00361603 0.00184414 0.00652381 -2.52011478 2.13415271 0.13036685
C 4.50096529 9.13861650 3.30937509 0.00674070 0.00336215 -0.00075768 -0.13591373 1.70706415 -4.91162553
C 7.32242465 7.35220321 1.02454427 -0.00484384 -0.00003215 -0.00383270 0.50168896 -2.02998635 4.88736826
C 9.68454049 2.35640991 6.58720712 -0.00498105 -0.00567728 0.00113949 -0.65115166 0.50494900 -5.12288928
C 3.91759057 9.92758348 9.72379156 -0.00645355 -0.00817796 -0.01142404 -0.20944929 -7.79636812 -6.33780092
C 9.43238942 4.46096386 0.97282257 -0.00419458 0.00509287 -0.00300573 1.88220501 -3.53786188 1.53790772
C 3.00983234 0.23917393 4.67005696 -0.00075464 0.00447555 0.00318305 -1.26223660 -1.33792055 2.52976590
C 0.72936980 6.40405014 1.63714050 0.00183167 -0.00321361 0.00178941 5.81065458 -6.45768046 2.73594454
C 0.91028393 5.49364912 7.41868376 0.00191316 0.00619262 -0.00169329 2.99818087 -1.53492510 3.16926203
C 0.11507116 9.83428180 5.46246424 0.01733953 -0.00147793 0.00408858 14.86945748 -1.79192024 0.63323131
C 9.24239274 7.03977421 9.41689239 -0.00377264 0.00425044 -0.00452897 -1.80598879 -2.25010943 -1.69639957
C 1.60562145 5.48865885 3.70085252 0.00044316 0.00635984 0.00631768 3.34045067 2.01911986 0.28673327
C 5.49192687 7.92805053 9.73988534 -0.00814113 0.00968249 0.00031907 -0.46806455 3.29128624 0.23334265
C 9.74650268 2.66080439 8.20465173 -0.00899610 -0.00248202 0.00271737 -2.18791026 3.32024717 -0.28472883
C 6.43488268 8.76090297 5.74243799 0.00501476 -0.00180902 -0.00598073 -1.51353206 1.04070070 1.39741576
C 7.76265965 8.06688784 2.23157059 -0.00776417 -0.00116186 -0.00749291 -0.33317214 -0.27311325 -0.65604080
C 2.00930867 3.11745542 1.70503840 -0.00465575 0.00761026 0.00824753 -1.03177029 0.21122447 3.06018770
C 2.96109843 9.39468082 8.73689183 0.00453361 -0.00720480 -0.00217912 -0.78379449 -3.97264361 -2.94023335
C 9.23724754 9.40790353 6.93389077 -0.00366095 0.00379296 0.00131434 -1.63943696 -0.22549015 0.83048773
C 6.16121043 5.38878128 3.07391268 0.00055652 0.00096703 -0.00293694 -2.97250247 0.76122189 5.65259528
C 2.22258450 3.39888880 9.32590669 -0.00157883 0.02456505 -0.01857860 0.06640115 19.53486776 -26.77753448
C 9.53792235 1.61097836 9.35913182 0.00809204 -0.00757256 0.00508834 4.80435169 -3.18910833 -0.90495974
C 1.11546800 1.62537583 5.75343712 0.00310744 -0.00423498 0.00300918 1.26837766 -2.09337854 1.05079174
C 1.23775093 1.38219136 3.50416752 -0.00115945 0.00010633 0.00578870 5.05315447 1.55600357 0.74984312
C 0.92430388 6.33009137 8.66329863 0.00904308 -0.00074243 -0.00863532 5.28117085 2.82878745 -4.19253886
C 4.68849615 7.72689134 0.77099265 0.00516539 -0.00753262 0.00307928 -2.09323788 -6.08475542 0.34763336
C 9.27162274 7.00119097 4.94453896 0.00678039 0.00007800 -0.00076053 -0.67807364 -1.55101323 -4.50508428
C 7.57358213 3.73408817 0.13989460 0.00250787 0.00007391 0.00635899 -4.94023177 1.40852690 -0.56668640
C 8.79187133 1.59864746 1.18460399 -0.00625062 0.00324097 0.00643056 -6.55278850 -2.23201442 4.14927375
C 7.40213210 1.31640374 6.26096337 0.00603487 0.00071396 -0.00368050 -0.54085249 1.56907332 1.11073387
C 7.49891154 1.57813884 2.04350533 0.00767401 0.00791751 -0.00590050 -0.01875705 1.46560895 -0.28839695
C 8.48879154 4.74393575 9.09857629 0.00565576 0.00430185 -0.00382370 0.06028295 2.92813045 -3.61004452
C 5.89542896 1.28493592 8.17689816 -0.00213641 -0.00271832 0.00309662 -4.32057381 1.40858746 -1.54744625
C 7.18008646 2.85585686 4.21921862 -0.00246367 -0.00389250 -0.00091045 0.74658966 -3.55866909 4.40909904
C 1.41992553 5.49420269 5.14857857 -0.00889409 -0.00099801 0.00076406 -4.67969847 3.60832453 0.66098785
C 5.80235237 8.92680407 2.88978345 0.00299401 -0.00936132 0.00642515 4.95858702 -4.74386555 0.02911478
C 6.64850450 2.45070066 5.48687989 -0.00428867 -0.00598705 -0.00281246 2.85528849 0.30445102 -3.34207094
C 4.39996629 3.83587125 5.37797238 0.00286626 0.00576881 0.00958340 -1.69307480 -2.32151622 3.76199889
C 6.29979720 5.04557413 1.61952827 0.00580934 -0.00340007 0.00711634 3.04278135 -1.52919997 4.00361884
C 4.80991420 1.56858123 7.22179831 -0.00144765 -0.00268379 -0.00473262 1.24022993 1.05809364 -0.22640073
C 2.23482563 2.84072037 0.05934566 0.00486264 -0.02371635 0.02116254 3.72711468 -21.52779675 29.97975492
C 7.96385767 4.09421753 4.24175932 0.00531388 -0.00824565 0.00319922 1.75824541 -2.42295134 -2.14139509
C 7.37518525 1.55302335 3.52957106 -0.00475908 0.00607039 -0.00742015 0.76103508 2.90559924 -0.52586316
C 7.58243466 5.52661218 3.71142218 0.00717164 -0.00729866 -0.00187852 -0.30628836 0.32157287 -2.88981342
C 3.24951208 9.27527892 7.36560960 -0.00292553 -0.00700185 0.00509399 3.31726182 -3.01445341 0.90721415
C 7.96000975 6.37240642 7.42283534 -0.00062433 0.00279272 0.00801988 -5.03935933 0.58831704 0.31007168
C 6.25095967 9.45343725 1.57350989 0.00052617 -0.00081788 -0.00472626 -2.49840713 -6.03784847 2.34990180
C 7.54195931 5.91516113 1.29219502 -0.00548658 0.00164839 -0.00567831 -0.13914580 1.78575626 1.26146114
C 5.37244007 1.67801051 4.87795005 -0.00618018 -0.00530678 -0.00066316 1.04506999 -0.31693202 0.31567100
C 4.12084423 1.88660942 9.55610925 0.03131842 -0.00094013 -0.01507264 28.26862597 -1.61719394 -19.87254596
C 8.43298556 0.43457505 9.53280075 -0.01106155 -0.00814149 0.00468314 -3.55307448 -2.77489030 -4.37594831
C 8.79168274 1.26307973 4.17362824 -0.00734997 0.01387181 -0.00614758 -3.24338250 9.59054565 -0.28836224
C 9.51975115 0.11971732 3.35939368 -0.00034874 -0.00131310 -0.00201685 -10.28220248 7.41577591 -9.93525505
C 4.91848376 2.66545723 1.85835492 -0.00882855 -0.01164161 0.00903344 -3.04318976 -4.25450961 3.15825880
C 6.73528419 8.57767975 7.33338572 0.00101624 -0.00364639 -0.00441329 -0.14427236 2.25034404 1.27222459
C 4.54506387 6.13449802 6.32623306 -0.00116195 0.00679260 0.00342762 0.93161941 0.53424120 -1.90572193
C 0.72813275 7.43614165 0.56196356 0.03662908 -0.01073091 0.01534693 41.77061439 -12.57938695 17.03550148
C 9.57105126 4.76077534 2.44044308 -0.00456686 0.00027926 -0.00640028 -5.17391789 -3.12727147 -0.38181102
C 0.89685722 3.97955373 1.55288420 0.00489414 0.00783933 -0.00607155 5.08129728 4.79416227 -2.50401914
C 8.45988357 5.88124082 2.56146999 0.00612365 0.00121070 0.00739989 -2.66377729 0.12417587 1.39398515
C 3.10604439 1.11248779 1.35934726 0.00463411 0.00434735 -0.00438805 0.22338554 3.06123757 4.64253604
C 0.78426510 1.00499146 6.97485160 0.00517146 0.00807823 -0.00066371 1.79099450 3.62443316 -8.25414896
C 4.55731652 9.09894627 7.06501058 0.00243946 0.00737067 0.00824159 -4.00111818 2.67493492 0.79921091
C 5.09160346 0.77472066 6.01716535 0.00542492 0.01224213 0.00931515 1.92071164 7.38314808 2.31493190
C 7.03403308 4.78009783 9.32271475 0.00150692 -0.00330981 -0.00430925 -0.71246171 -3.70378347 1.40917015
C 4.95594990 5.16783014 0.77335355 0.00686997 0.01196725 -0.00812337 1.14542532 7.26274927 -1.26707363
C 2.06603970 5.47598547 6.43980468 0.00040688 -0.00521726 0.00165121 -2.12325812 -1.07734862 0.38971058
C 3.41528541 5.21901773 7.00789564 -0.00541993 0.00138969 -0.00264672 -0.98426050 -1.91218752 0.89041770
C 6.75240162 7.05796509 7.81222088 -0.00122217 -0.00814891 -0.00828397 2.43046212 -4.46653199 -1.60549057
C 2.97917032 3.70073272 2.64817502 0.00302393 -0.00297786 0.00320385 0.63141917 2.11482400 1.61540204
C 5.18839625 5.56276716 3.95333805 0.00109362 0.00541836 -0.00693920 0.93952537 -2.58630340 -3.85220882
C 9.36236399 9.22333579 4.10668255 -0.01008526 -0.00937620 -0.00627440 -12.62095284 -14.94318581 -0.49035716
C 3.75924911 5.24072522 8.46949287 0.00368753 0.00171637 0.00699294 5.84687018 0.62529731 0.49810791
C 2.23713770 7.67833183 0.30129815 -0.00089672 -0.00485728 0.00508424 -0.93220270 -2.71155190 0.06246412
C 0.28284576 0.90858523 0.08546172 -0.06326975 -0.03456741 0.06471901 -80.47107363 -36.99116635 92.16443920
C 4.09297901 9.62781023 4.69647943 -0.00009038 0.00498821 -0.00428118 -2.13963723 -0.20421600 0.47152467
C 0.72257320 3.44673978 9.11070337 -0.00126615 0.00254140 -0.00041478 -4.31304984 3.71371251 1.02536583
C 7.76102779 6.56781027 4.91907176 -0.00294200 0.00419653 -0.00490216 0.27439505 1.21063489 0.16452046
C 6.82124846 8.18211751 3.38976546 0.00052743 -0.00509335 -0.00074644 -2.14370781 3.28427458 0.84175873
C 9.59412094 9.24105602 9.66262604 0.00118724 0.00281200 0.00475150 -1.82670093 0.01488350 2.65267849
C 8.24472841 5.07873767 0.18794182 -0.00235257 -0.00643939 0.00375641 -0.57505697 -1.43671775 2.24469402
C 9.05607813 6.03046325 8.41220217 -0.00115057 0.00659823 -0.00029605 -3.45745361 3.97102928 2.76799865
C 0.99157439 6.52365908 2.95573197 0.00646500 -0.00361289 0.00573727 2.87216341 1.71300435 -0.23578866
C 1.84571176 8.64607785 9.09254320 0.00591009 -0.00002337 -0.00732041 4.32792914 -2.81640851 -3.44479442
C 6.39439086 2.40352549 1.49734562 0.00213109 -0.00318164 -0.00500681 1.46950963 4.48862165 -1.40028289
C 9.90489189 7.67199778 0.30846367 -0.02794313 0.01028056 -0.01998786 -37.10913086 7.45113647 -15.71386266
C 3.37357171 8.65982404 2.65608391 -0.00234312 -0.00388321 -0.00097751 4.56904423 -1.86042035 -2.39363667
C 8.83960577 1.18135708 5.77190172 -0.00340476 0.00343983 -0.00603433 -6.00151336 1.20189404 -3.45086455
C 3.76117828 3.75822934 6.57018825 0.00845120 -0.00568599 -0.00609200 5.31036794 -2.42827213 -3.68539393
C 0.49204738 4.11999079 7.82229383 -0.00383875 0.00964586 -0.00814570 1.97399759 2.67661196 0.84766877
C 6.90494447 3.75961985 1.40294276 0.00277460 -0.00296477 -0.00672206 -3.68443841 -0.01147938 -2.05354989
C 6.87360488 3.65445015 6.47507248 0.00095465 0.00820331 0.00607524 2.83767962 1.30251849 -0.86452249
C 2.20471612 5.18796040 0.21669331 -0.00136357 -0.00204512 0.01211188 -7.66752523 -5.49110329 22.29923177
C 5.91930867 2.18595623 0.07427064 0.01602954 0.01676577 0.02597944 12.60007668 18.69654703 22.87119150
C 7.33040815 3.14878718 7.85501073 0.00736296 0.00458713 0.00464989 0.65930997 -2.31554511 -1.54571128
C 1.89107686 6.02019790 9.67271874 -0.00853820 0.01822889 -0.00912049 -3.37370038 16.13576776 -10.75361270
C 0.06543427 5.82719877 5.37788774 -0.00034702 0.00812223 0.00348446 3.73110652 2.27423859 -2.82154751
C 3.77341851 5.80744984 3.76898006 0.00595164 -0.00019418 0.00215465 -0.39055946 0.16425902 1.67952195
C 4.52795141 2.80299559 4.39315461 -0.00392742 -0.00220844 0.00726180 1.94487551 1.98173887 2.05947709
C 6.08203200 8.19450984 0.72952738 0.00013794 -0.00092050 0.01067503 -0.48316979 -0.27469659 6.16862392
C 9.31862037 7.88083160 3.87278420 -0.00258537 -0.00826169 -0.00423032 -3.25090103 -5.73451948 0.68586164
C 7.02735615 7.82637213 4.74243358 0.00302556 0.00397654 -0.00981341 0.04832506 0.53382701 -4.99682212
C 4.87501409 8.73647714 5.70976567 0.00003919 -0.00359988 0.00872692 -1.85456359 -4.00099486 4.28541017
C 0.78843201 1.13334217 9.57984318 0.06206792 0.02528804 -0.07226557 77.89523077 42.11555958 -90.17405510
C 3.50968728 7.04603524 4.45396912 0.00198324 -0.00675828 -0.00559292 2.45473784 -0.50669056 0.91612738
C 3.45057212 8.23058496 1.33367839 0.00140138 -0.00160173 0.00990282 3.88212037 1.82572639 4.36803150
C 5.62632529 6.06930433 7.44692880 0.00541489 0.00064721 0.00743338 -1.02177975 -1.26258010 2.57579565
C 4.53910295 2.79861791 0.44869399 0.00631714 0.00065766 -0.00192993 0.65775585 1.09486437 1.35958278
C 1.19408085 7.76854079 3.55610430 0.00096593 0.00141256 -0.00081639 3.00028789 -1.11597538 -2.31715041
C 3.30877772 2.55864340 8.67494309 -0.00225070 -0.00594720 -0.01102703 2.91688776 -0.00148702 -4.58136356
C 6.25476227 5.05875919 6.35385521 -0.00506001 0.00247353 -0.00341785 2.01097530 0.43405131 -1.32716770
C 9.05438936 3.73320940 3.39736443 -0.00345525 -0.00618947 -0.00251529 -0.16087443 -4.13009787 4.90542054
C 2.76477992 4.83207662 9.46402230 0.00878188 -0.00247832 -0.01551703 12.77706647 -11.26577449 -19.69190359
C 5.28497708 9.28213238 9.39554663 -0.00679871 0.00300178 0.00012734 -2.95226610 0.82009077 -4.85314870
C 0.48569946 0.94441429 1.47577313 0.00153340 -0.00851963 0.00553020 1.13516235 -3.82150900 1.88486600
C 1.77795690 1.66806139 2.10187702 0.00167085 0.00123209 -0.00602460 -0.88646632 1.44578785 -0.67624342
C 6.47755450 0.02468122 6.46347622 0.00015560 -0.00172668 0.00066266 -0.64460561 -0.37844896 -5.63560927
C 3.86679627 2.60790275 7.39658677 0.00058910 -0.00439971 -0.00214512 3.31835759 -0.03102639 1.48911905
C 0.64551718 9.41447165 1.93324091 0.00026604 0.00173823 0.00396684 -4.93493330 -0.48155276 -3.86919081
C 5.15334184 5.13554173 5.35537409 -0.00276372 0.00594651 -0.00587466 -0.03873819 -0.43624201 0.42636943
C 7.27331096 1.73142327 7.66803419 -0.00263861 -0.01076899 0.00403938 -0.94500595 -3.19244713 -0.60951489
C 7.73187554 0.52259245 8.30134866 0.00683290 -0.00494220 -0.00537945 3.40430897 -1.64234203 1.02548569
C 8.73063990 3.67918364 8.05726000 0.00464578 0.00156123 -0.00652445 -1.05593431 -2.24675396 0.73583555
C 2.24404667 8.95799389 6.35826762 0.00096702 0.00765658 0.00594324 2.54037434 -0.06798196 4.02241564
C 0.33382520 2.80864888 5.56037791 -0.00509342 -0.00513582 0.00791924 -0.37499481 -5.51394516 3.66317022
C 6.06383358 5.74838172 9.75546442 -0.00855210 -0.00592051 -0.00698323 -1.63243830 1.18950760 -6.11883318
C 7.60163722 5.69324806 6.15139461 -0.00386920 0.00214506 0.00487458 -0.58860493 -0.23155320 -0.32372563
C 2.68650688 9.19897849 5.03443722 -0.00611473 -0.00930858 -0.00629975 0.02088416 -1.98446202 1.65074641
C 2.82929772 4.95681357 3.27082348 0.00000293 0.00518762 0.00394853 0.66028509 1.03087714 1.78027673
C 0.51489578 8.90925552 3.22417444 0.00553746 -0.01039212 -0.00566602 7.81438476 -4.94864148 -7.66943443
C 9.05832114 7.33340701 2.59482986 -0.00226081 0.00144583 0.00540868 -4.66061878 1.31661591 4.42873782
C 4.37206666 7.34804412 5.53582748 -0.00565104 -0.00569897 0.00248687 -3.97780037 -2.89574206 -4.18423283
C 8.12803248 4.29188983 5.81335275 -0.00202448 -0.00535444 0.00358977 -1.90950441 0.28814423 2.10882610
C 9.31407784 3.87609667 6.59892933 -0.00178689 0.00123670 0.00266528 -2.40190125 -0.52276254 1.06047738
C 9.98146866 3.38941987 0.12483619 -0.00162756 0.00905500 -0.00673578 2.62359858 4.64362359 -0.22152269
C 4.13844147 1.54131175 2.34907630 -0.00463051 0.00644844 -0.00766278 2.01173854 -0.13272023 -2.36295259
C 6.05843463 0.72355939 3.87138803 -0.00252100 -0.00068071 0.00434898 -3.00167179 4.96424341 -1.01842380
C 7.77381196 9.46801387 1.59750009 -0.00775090 -0.01953707 0.01244057 -5.65876150 -17.97801828 6.54911041
C 1.01465949 8.32081278 6.89112878 0.00226293 0.00444931 0.00546711 6.28264457 -0.50657064 4.55202165
C 7.92427955 9.21505983 7.85417655 -0.00945335 0.00050763 0.00517319 -1.79978824 5.92004037 0.56428432
C 5.60715371 9.39005317 7.88011669 -0.00165264 0.00211400 -0.00478687 -4.14871860 -3.78226560 -1.97573473
C 6.52858757 3.55828021 9.03100643 -0.00053749 -0.00339547 0.00206857 5.73861551 2.15189308 0.32896864
C 1.13345035 7.75813325 8.21152833 -0.00389200 0.00532281 0.00290890 3.72871566 3.53428066 -1.11894280
C 5.53808720 1.55196956 9.51800149 -0.00875659 -0.02259304 -0.02604617 -11.66124721 -16.93648314 -26.03650093
C 6.61476710 7.10504492 9.43121527 -0.00630915 -0.00387196 -0.00492577 -3.37665623 -3.10438037 -0.64990914
C 8.23234670 9.04937411 9.29275986 0.00147842 0.00260943 -0.00480880 4.80942583 2.92619944 0.75026560
C 9.11889873 9.93940671 5.43720443 -0.01109864 -0.00535875 0.00357786 -13.46275234 3.12344229 6.50667882
C 1.18238426 5.24303007 1.10137227 -0.00355231 -0.00445933 0.00737937 -2.48117518 -1.54212539 5.27096558
C 2.94381906 6.33797991 0.30623681 -0.00230954 0.01050279 0.00006831 0.94956529 10.06560755 -0.34482825
C 2.56581821 8.08669966 3.96944123 0.00707117 -0.00022489 0.00468751 0.23145139 -3.69610405 0.33929147
C 4.31032696 6.37279806 0.61110881 0.00155912 -0.00454197 0.00226124 -2.68352616 -1.61837399 0.29982919
C 5.04624642 5.57131323 8.66875097 -0.01223817 0.00110302 0.00015199 -4.61738443 0.99537140 -6.39601874
C 4.93527778 0.48676181 2.82853728 0.00241465 0.00598485 0.00304558 0.36567263 4.58364168 3.90460087
C 2.03147901 1.30800718 4.76162336 -0.00542218 -0.00340831 0.00191804 -4.75829595 -1.20872247 -1.08382916
C 7.91025091 0.37545653 1.26384037 0.01059736 0.02017815 -0.00865050 6.14074212 18.57726479 -2.86533153
159
Time=2.00000000 pbc="T T T" Lattice="10.00000000 0.00000000 0.00000000 0.00000000 10.00000000 0.00000000 0.00000000 0.00000000 10.00000000" energy=36.44124603 virial="-688.41970195 43.30460569 -34.65433912 43.30460569 -701.95072982 -31.44491070 -34.65433912 -31.44491070 -812.92142731" stress="-0.64137904 0.04330461 -0.03465434 0.04330461 -0.67717424 -0.03144491 -0.03465434 -0.03144491 -0.76127202" Properties=species:S:1:pos:R:3:vel:R:3:forces:R:3
C 0.20024894 9.89290319 4.17054586 0.03625058 0.00624494 0.01895275 13.44999492 2.46873438 6.46006334
C 9.51060295 2.58472722 3.83214487 -0.00101320 0.01241031 -0.00701608 -4.00020182 3.64794397 -1.62824380
C 3.31493091 1.99566579 0.07493502 -0.04730304 0.01332855 0.02865884 -12.93439907 3.21896231 10.89868782
C 4.15491661 2.93381346 2.99882317 -0.00145514 -0.00118741 0.00006799 -1.75099421 -0.24876022 -1.14646554
C 0.14654594 8.85359828 0.80683262 -0.00569038 0.00335548 0.00664902 -2.64440438 1.62863966 0.18135846
C 4.50765141 9.14266429 3.30664463 0.00673291 0.00474654 -0.00462259 0.11650729 1.73967063 -4.71084908
C 7.31778232 7.35135571 1.02267460 -0.00452761 -0.00173322 0.00007724 0.28564167 -2.20519084 4.84724730
C 9.67929790 2.35093544 6.58628898 -0.00548897 -0.00530362 -0.00293076 -0.61340487 0.42536199 -5.01084566
C 3.91105289 9.91627407 9.70982193 -0.00656107 -0.01426517 -0.01651542 -0.05822873 -7.35900044 -6.33824056
C 9.42895084 4.46463574 0.97043455 -0.00284519 0.00220794 -0.00175385 1.47737551 -3.64476871 1.57890648
C 3.00857071 0.24311209 4.67425610 -0.00179088 0.00314961 0.00523655 -1.31769258 -1.96326405 2.58284125
C 0.73353534 6.39824278 1.64002881 0.00637329 -0.00796873 0.00378048 5.49665701 -5.38115883 2.22124147
C 0.91340132 5.49922523 7.41826342 0.00432127 0.00492192 0.00087259 2.99730539 -1.62873042 3.21904026
C 0.13838306 9.83208414 5.46680716 0.02714509 -0.00254931 0.00439288 9.54350877 -0.87550317 0.12437793
C 9.23789472 7.04312089 9.41168206 -0.00496596 0.00250716 -0.00570584 -1.16502845 -2.09015548 -1.23367035
C 1.60740632 5.49582967 3.70728537 0.00310381 0.00802219 0.00650997 3.28379399 2.11965439 0.19200802
C 5.48359773 7.93905497 9.74029813 -0.00840215 0.01226280 0.00072103 -0.18178201 3.13295063 0.76742983
C 9.73662779 2.65965597 8.20725474 -0.01082527 0.00006543 0.00261535 -2.36616802 3.02214146 0.03073096
C 6.43928953 8.75951195 5.73701854 0.00373869 -0.00095207 -0.00481132 -1.66350310 1.09285718 1.51407015
C 7.75476166 8.06561628 2.22381419 -0.00790441 -0.00124702 -0.00804298 -0.01598120 0.06108558 -0.71348353
C 2.00423851 3.12515053 1.71451506 -0.00551617 0.00782923 0.01062833 -1.11043621 0.33394668 2.86730468
C 2.96531723 9.38588039 8.73353175 0.00391715 -0.01051136 -0.00457156 -0.75101355 -4.25971746 -3.01624048
C 9.23292810 9.41160592 6.93553867 -0.00501137 0.00360386 0.00189951 -1.72271037 -0.24532527 0.62641072
C 6.16057303 5.39005406 3.07324613 -0.00185488 0.00153641 0.00150202 -3.03118214 0.65635425 5.39909363
C 2.22103234 3.43130010 9.29657279 -0.00139511 0.03549924 -0.03364640 0.39100792 7.68806589 -10.73685765
C 9.54794407 1.60212488 9.36385668 0.01121060 -0.01012053 0.00490916 2.95995772 -3.15458429 0.45885862
C 1.11908489 1.62030004 5.75686836 0.00417775 -0.00601163 0.00389046 1.39635634 -2.32996321 1.14334476
C 1.23862110 1.38292266 3.51025740 0.00287239 0.00130007 0.00659642 4.98494339 1.41605657 1.26114559
C 0.93546816 6.33048513 8.65297936 0.01333901 0.00147966 -0.01186112 5.41444373 2.70356244 -3.83875799
C 4.69282078 7.71691475 0.77421156 0.00356671 -0.01230419 0.00329360 -1.88701069 -5.79505980 0.18595982
C 9.27813077 7.00064600 4.94196895 0.00626317 -0.00128255 -0.00434811 -0.60965514 -1.83635259 -4.42694533
C 7.57410574 3.73472781 0.14602597 -0.00143046 0.00111831 0.00604444 -4.86506256 1.19173384 -0.21644559
C 8.78298875 1.60099193 1.19270112 -0.01196611 0.00145745 0.01001423 -7.67708993 -2.20843196 4.77301574
C 7.40794974 1.31774792 6.25772900 0.00559597 0.00199065 -0.00281736 -0.55187154 1.60949796 1.03822923
C 7.50657801 1.58664502 2.03748899 0.00760412 0.00884989 -0.00611361 -0.15523612 0.85573250 -0.24218690
C 8.49447151 4.74941370 9.09330260 0.00569149 0.00674233 -0.00664289 0.02869105 3.14794779 -3.40891895
C 5.89155718 1.28278337 8.17937324 -0.00552563 -0.00151237 0.00208420 -4.11759377 1.59386158 -0.97318149
C 7.17792266 2.85053501 4.22007910 -0.00185390 -0.00680654 0.00264939 0.77155638 -3.69644332 4.45387042
C 1.40915182 5.49465398 5.14960812 -0.01270401 0.00195097 0.00121592 -4.80588508 3.73378766 0.46401256
C 5.80733802 8.91553736 2.89622029 0.00686403 -0.01319559 0.00657104 4.67663461 -4.80235520 0.33411133
C 6.64536267 2.44483590 5.48272508 -0.00193728 -0.00578921 -0.00556615 2.99896878 0.18812804 -3.51379776
C 4.40215252 3.84070761 5.38906681 0.00141038 0.00389339 0.01273924 -1.93164425 -2.34771144 4.09510684
C 6.30682868 5.04155985 1.62825267 0.00831652 -0.00453265 0.01035878 3.19936219 -1.29058366 4.06910717
C 4.80896470 1.56632242 7.21697476 -0.00046996 -0.00191618 -0.00512627 1.19393492 0.85302478 -0.75366260
C 2.24118528 2.80835730 0.09254969 0.00788293 -0.03611152 0.03903416 3.79252726 -9.33253551 14.51532578
C 7.96987776 4.08499869 4.24409844 0.00664997 -0.01019326 0.00144285 1.56823951 -2.42601842 -2.23144710
C 7.37073185 1.56026078 3.52193970 -0.00402116 0.00846710 -0.00771146 1.07615727 3.06149876 -0.19941652
C 7.58948329 5.51944269 3.70838295 0.00696658 -0.00693071 -0.00421179 -0.20426494 0.59450426 -2.91934139
C 3.24791894 9.26706630 7.37106797 -0.00031272 -0.00931807 0.00580526 3.18787146 -2.75225973 0.86364950
C 7.95736135 6.37543544 7.43097977 -0.00474545 0.00325895 0.00824540 -5.22102237 0.57246256 0.25139663
C 6.25048235 9.45019424 1.56972748 -0.00118805 -0.00563540 -0.00286140 -1.76950908 -5.95636797 2.29306859
C 7.53641685 5.91752677 1.28702337 -0.00569252 0.00302431 -0.00471839 -0.37360355 1.63990051 1.12845778
C 5.36667965 1.67257643 4.87741369 -0.00532898 -0.00552699 -0.00039941 1.07415241 -0.23131563 0.34096810
C 4.16351685 1.88501974 9.53305473 0.04680069 -0.00125493 -0.02637099 10.27768850 0.83343267 -8.25704825
C 8.42049690 0.42531902 9.53572627 -0.01379242 -0.01028466 0.00115999 -3.24600154 -2.56097591 -4.39564466
C 8.78303005 1.28080362 4.16736483 -0.00988983 0.02145626 -0.00632965 -3.08012372 9.29250574 -0.16494264
C 9.51527252 0.12138279 3.35338630 -0.00761612 0.00379848 -0.00864771 -7.81145102 5.31056535 -6.57364130
C 4.90843291 2.65210679 1.86865688 -0.01155400 -0.01502088 0.01164877 -3.74239343 -4.15889378 3.35313201
C 6.73624248 8.57493722 7.32948342 0.00090043 -0.00178992 -0.00341403 -0.14406142 2.37172806 1.21564390
C 4.54427611 6.14150521 6.32889523 -0.00049302 0.00730054 0.00177155 0.73379719 0.73035967 -2.21739379
C 0.78153915 7.42035819 0.58415286 0.06107334 -0.01829594 0.02624465 19.08844328 -6.25533515 10.09663343
C 9.56440627 4.75979852 2.43388944 -0.00874722 -0.00215507 -0.00677786 -5.23394620 -2.93349980 -0.55826473
C 0.90379228 3.98931865 1.54580690 0.00906122 0.01166808 -0.00803473 5.29350817 4.73831606 -2.38371801
C 8.46493730 5.88250140 2.56942978 0.00398935 0.00122167 0.00859674 -2.65001619 -0.09685822 1.58581728
C 3.11076822 1.11806470 1.35682390 0.00489664 0.00688594 -0.00085475 0.43023527 3.25910640 4.15434003
C 0.79015593 1.01452545 6.97087259 0.00658208 0.01097269 -0.00730444 1.72101288 3.58192712 -8.27934313
C 4.55814892 9.10739134 7.07357317 -0.00068003 0.00936799 0.00877857 -3.76548195 2.29781294 0.53771222
C 5.09779984 0.78992826 6.02741031 0.00684374 0.01813458 0.01123168 1.61173606 7.28733529 2.45665215
C 7.03525384 4.77530039 9.31897150 0.00091066 -0.00623185 -0.00318215 -0.77205992 -3.57125717 1.39697409
C 4.96327994 5.18271450 0.76472126 0.00772364 0.01781680 -0.00921777 0.97997618 7.30091158 -1.45766634
C 2.06559377 5.47033549 6.44161241 -0.00120946 -0.00605893 0.00208401 -1.90097219 -1.01817989 0.68784079
C 3.40947015 5.21963938 7.00560656 -0.00628340 -0.00006002 -0.00207769 -1.16555142 -1.69714999 0.52629825
C 6.75215566 7.04802219 7.80329206 0.00073365 -0.01181720 -0.00948665 2.43897104 -4.66645682 -1.38883002
C 2.98244786 3.69860429 2.65202771 0.00348672 -0.00129432 0.00448270 0.52078285 2.07669514 1.56854552
C 5.18986723 5.56714673 3.94485159 0.00186164 0.00329390 -0.01002919 0.97262508 -2.70297688 -3.84093907
C 9.34720948 9.20795760 4.10021119 -0.01838996 -0.01948219 -0.00689742 -8.05532265 -10.21776497 -1.06077886
C 3.76528506 5.24269274 8.47668588 0.00824822 0.00219793 0.00768991 5.50792265 0.57364154 1.23714340
C 2.23586656 7.67238544 0.30640749 -0.00191079 -0.00720910 0.00511283 -1.59253925 -3.14378595 0.00871456
C 0.18725451 0.85916019 0.18719891 -0.09571344 -0.04930481 0.10502634 -0.30423116 0.29935813 8.18900609
C 4.09202924 9.63271641 4.69238764 -0.00185775 0.00486524 -0.00388420 -2.26060987 -0.10193396 0.51683795
C 0.71957469 3.45077281 9.11070043 -0.00454641 0.00542603 0.00041429 -3.85381812 3.46815717 1.03879356
C 7.75819600 6.57249305 4.91423568 -0.00274006 0.00517301 -0.00476919 0.22836995 1.22051513 0.16653417
C 6.82091485 8.17834330 3.38935712 -0.00135732 -0.00236974 0.00003456 -2.54876298 3.49670756 1.10271198
C 9.59457448 9.24387399 9.66844299 0.00000024 0.00311896 0.00701998 -1.12858987 0.74937147 2.99517202
C 8.24214486 5.07172122 0.19259982 -0.00274582 -0.00758079 0.00546932 -0.40402949 -1.40503120 2.01994389
C 9.05353886 6.03865645 8.41301789 -0.00399601 0.00994520 0.00205754 -3.62686467 4.36195949 3.09177086
C 0.99919300 6.52073423 2.96137453 0.00876284 -0.00232851 0.00566465 2.84878451 1.48472458 0.05499545
C 1.85336018 8.64492326 9.08383918 0.00930831 -0.00231293 -0.01018672 4.13265076 -2.88393140 -3.69147027
C 6.39711218 2.40214672 1.49177638 0.00329437 0.00028998 -0.00638734 1.42671385 4.15470120 -2.03683698
C 9.86204373 7.68527111 0.28216428 -0.04838399 0.01354992 -0.02992523 -13.78260159 0.68861014 -9.02726650
C 3.37306376 8.65519359 2.65414499 0.00135899 -0.00541644 -0.00311496 4.64813280 -1.95688006 -2.92798591
C 8.83379047 1.18527965 5.76448133 -0.00825214 0.00435569 -0.00877926 -6.06703794 1.07834411 -3.38319188
C 3.77176241 3.75156803 6.56261600 0.01275179 -0.00755423 -0.00917908 5.39683425 -2.22310668 -4.00052869
C 0.48900149 4.13071172 7.81448861 -0.00229906 0.01193294 -0.00764359 1.85939431 3.01753965 0.40242946
C 6.90623920 3.75665047 1.39539588 -0.00012508 -0.00279381 -0.00832926 -3.53491172 0.43710351 -1.94791412
C 6.87569929 3.66317662 6.48080048 0.00330325 0.00930545 0.00537032 3.00965810 1.44149417 -0.89051482
C 2.20027285 5.18370977 0.23776175 -0.00667744 -0.00516517 0.02676653 -5.56245381 -2.27692366 14.18655723
C 5.94039907 2.21023153 0.10943637 0.02299219 0.02640476 0.03909351 4.73488522 5.30172443 9.77900648
C 7.33803593 3.15244426 7.85903978 0.00785448 0.00278256 0.00340712 0.56442060 -2.17729673 -1.54842842
C 1.88118360 6.04490778 9.65927903 -0.01037260 0.02932355 -0.01649069 -1.19342899 11.48668396 -7.59604684
C 0.06658586 5.83623445 5.38023892 0.00267265 0.00997384 0.00115322 3.78698525 2.33573818 -2.98255205
C 3.77921327 5.80732163 3.77180930 0.00556096 0.00003350 0.00347987 -0.58210975 0.40260050 1.61989444
C 4.52480516 2.80158312 4.40124361 -0.00231240 -0.00071459 0.00886550 2.07604335 1.73749292 1.93325204
C 6.08197588 8.19347901 0.74268006 -0.00040741 -0.00121874 0.01540902 -0.87457752 -0.46785188 5.61761355
C 9.31472926 7.87026662 3.86882936 -0.00518099 -0.01275930 -0.00363283 -3.21143344 -5.46322155 0.80171089
C 7.03040113 7.83056309 4.73061317 0.00306118 0.00431019 -0.01385692 0.04036182 0.29684319 -5.07033086
C 4.87430839 8.73127025 5.72021383 -0.00145134 -0.00675512 0.01209413 -1.85643023 -3.85462496 4.09796810
C 0.88178683 1.17554607 9.47135887 0.09342649 0.04390625 -0.11143407 0.17843819 4.23834731 -7.34404010
C 3.51265648 7.03907345 4.44874417 0.00398253 -0.00716873 -0.00481127 2.52292156 -0.51522082 1.02993667
C 3.45353277 8.22971653 1.34533564 0.00446921 -0.00005602 0.01367659 3.75587028 2.02264297 5.02755141
C 5.63132978 6.06944442 7.45539676 0.00459404 -0.00030198 0.00943408 -1.02189198 -1.10061949 2.40535474
C 4.54568429 2.79971532 0.44731014 0.00672139 0.00144431 -0.00091638 0.34869778 0.86366987 1.16384411
C 1.19625186 7.76950511 3.55435721 0.00324879 0.00065789 -0.00279484 2.68337435 -0.76291382 -2.60860571
C 3.30769859 2.55269560 8.66207593 0.00057297 -0.00589740 -0.01513535 4.11324334 0.12546444 -5.64713961
C 6.25050998 5.06140705 6.34990430 -0.00335606 0.00283685 -0.00445479 2.23137325 0.47050893 -1.25451066
C 9.05086950 3.72536106 3.39681943 -0.00352629 -0.00955933 0.00150907 -0.01598990 -4.25985491 5.11405993
C 2.77869375 4.82507335 9.44059594 0.01750722 -0.01053516 -0.02920041 8.94648242 -8.79338372 -14.37569189
C 5.27699259 9.28546355 9.39372468 -0.00923309 0.00360092 -0.00372993 -3.10862789 0.67161059 -4.75032640
C 0.48768881 0.93435974 1.48206040 0.00221631 -0.01162184 0.00654101 0.56508136 -3.90207350 0.63176665
C 1.77927170 1.66987419 2.09558080 0.00101008 0.00245760 -0.00657765 -0.75866514 1.60536975 -0.70070004