159
Time=1.00000000 pbc="T T T" Lattice="10.00000000 0.00000000 0.00000000 0.00000000 10.00000000 0.00000000 0.00000000 0.00000000 10.00000000" energy=-148.95181656 virial="409.59488637 -3.09452423 -11.85451435 -3.09452423 371.08713433 -30.61308918 -11.85451435 -30.61308918 308.60965433" stress="0.43664433 -0.00309452 -0.01185451 -0.00309452 0.39409963 -0.03061309 -0.01185451 -0.03061309 0.33272152" Properties=species:S:1:pos:R:3:vel:R:3:forces:R:3
C 0.18288972 9.89055453 4.16302815 0.04482892 0.00835813 0.02513679 41.33959874 11.38691948 20.13835549
C 9.51409936 2.57093471 3.84011269 0.01033820 0.00366030 -0.00242686 6.64461308 -3.64594941 2.78957302
C 3.34831190 1.98476467 0.05559701 -0.04289603 0.00941761 0.02412628 -40.27830024 2.69620621 30.01906369
C 4.15566143 2.93527094 2.99951136 -0.00010063 -0.00018564 0.00348468 -1.57365708 0.50644952 2.34859983
C 0.15311139 8.84922213 0.80257324 -0.00028393 -0.00040754 0.01076164 0.95275927 0.69793515 4.91319424
C 4.50046532 9.13937876 3.31146431 0.00538997 0.00479036 0.00329048 -2.25406724 3.36509614 -0.03443826
C 7.32143456 7.35255540 1.02230818 -0.00672180 0.00063480 -0.00821055 -1.70882874 -1.24633776 -0.44498217
C 9.68177356 2.35493953 6.59142215 -0.01032534 -0.00860811 0.00936732 -7.06802422 -3.13115304 4.86778155
C 3.91819627 9.92944019 9.72594826 -0.00530481 -0.00502338 -0.00703854 1.14257881 -4.56505208 -0.78874011
C 9.43144447 4.46223488 0.97201090 -0.00605684 0.00757791 -0.00460928 -0.40161948 -0.51530140 -0.43365946
C 3.00764425 0.24994955 4.66670575 -0.00484374 0.02444849 -0.00300778 -5.99518157 21.56072497 -4.54006340
C 0.72651601 6.40815762 1.63548347 -0.00338768 0.00406157 -0.00096120 -0.07889473 1.42897387 0.01327082
C 0.90985507 5.49341858 7.41799193 0.00105035 0.00572903 -0.00314109 1.91776001 -2.11515009 1.28713048
C 0.13356814 9.83128570 5.46447931 0.04762660 -0.00647309 0.00787578 44.22330760 -6.76899597 5.04531888
C 9.24176236 7.03916009 9.41584972 -0.00556702 0.00309985 -0.00717003 -4.70398916 -3.58577412 -5.67592940
C 1.60397923 5.48795181 3.70141784 -0.00272551 0.00478001 0.00744011 -0.45995322 -0.15386909 1.67376089
C 5.48891562 7.92772014 9.73197695 -0.01366053 0.00913886 -0.01470546 -6.71262514 2.76036578 -17.48374227
C 9.74679887 2.65720048 8.20535702 -0.00840170 -0.00957950 0.00410445 -1.44546326 -5.37772648 1.41273181
C 6.43541052 8.75972988 5.74214929 0.00597562 -0.00402972 -0.00643282 -0.43545216 -1.56751538 0.99063533
C 7.76454390 8.06785254 2.23117056 -0.00394923 0.00034858 -0.00812312 4.47369969 1.08562341 -1.22912209
C 2.00962700 3.11673067 1.70291372 -0.00409530 0.00602759 0.00460947 -0.42896530 -1.92472221 -0.70768384
C 2.96131696 9.39668180 8.73816521 0.00488254 -0.00317182 0.00039701 -0.45917002 1.08647263 0.30325341
C 9.23874747 9.40666986 6.93316340 -0.00070714 0.00134977 0.00030715 1.98027611 -3.23684416 0.13381845
C 6.16318173 5.38837624 3.07186986 0.00442137 0.00018643 -0.00675858 1.74191279 -0.17381358 1.22384094
C 2.22216406 3.41017898 9.31002176 -0.00202418 0.04153453 -0.04264286 0.00437874 33.67467772 -47.14164827
C 9.53099533 1.61641008 9.35495434 -0.00406229 0.00173009 -0.00119301 -8.21011227 6.44837012 -6.14298456
C 1.11751575 1.62662393 5.75296362 0.00696093 -0.00159118 0.00213570 5.76410878 1.38151246 0.05496746
C 1.23726304 1.38277477 3.50442426 -0.00204176 0.00143725 0.00602425 4.07117271 3.41708604 0.69710176
C 0.92299686 6.32919751 8.66332144 0.00628367 -0.00234469 -0.00869062 1.66512267 1.06509065 -4.38701333
C 4.68835735 7.72735367 0.77262388 0.00474888 -0.00661166 0.00640636 -2.78464490 -4.94289144 4.56980165
C 9.27163301 6.99938379 4.94738687 0.00667486 -0.00341028 0.00484524 -0.96637294 -5.73647431 2.36116583
C 7.57414192 3.73147353 0.14221649 0.00374184 -0.00464623 0.01077288 -3.26171103 -3.83357200 4.64179229
C 8.79416097 1.59930214 1.18528826 -0.00122912 0.00480727 0.00768108 0.24874521 0.03765687 5.55907395
C 7.40184708 1.31568191 6.25994039 0.00526807 -0.00067919 -0.00557610 -1.74032368 -0.10232937 -1.06181997
C 7.49903679 1.57798389 2.04315915 0.00794893 0.00797405 -0.00633628 0.35387671 1.99216643 -0.51145500
C 8.49169986 4.74370182 9.08993035 0.01120706 0.00408034 -0.02029772 6.64056285 2.95906172 -23.09967970
C 5.89706665 1.28405893 8.17780858 0.00086922 -0.00467344 0.00359747 -0.91478998 -1.27566322 -2.56717305
C 7.17919436 2.85710473 4.21752019 -0.00429479 -0.00135376 -0.00423840 -1.59128540 -0.34479280 0.35206844
C 1.42123131 5.49320263 5.14851158 -0.00625404 -0.00302457 0.00078615 -1.35776069 1.05264133 0.88277339
C 5.80154567 8.92832288 2.88974459 0.00154134 -0.00627458 0.00614716 3.35033306 -0.84016124 -0.56624214
C 6.64714760 2.45042254 5.48847309 -0.00696124 -0.00635568 0.00037522 -0.42037406 0.07912788 0.62774179
C 4.40027344 3.83678198 5.37631480 0.00358766 0.00746031 0.00596819 -0.66171333 -0.37762451 -1.11190558
C 6.29822504 5.04622705 1.62030405 0.00259517 -0.00220669 0.00847832 -1.04536897 -0.18359277 5.46307991
C 4.80930893 1.56805879 7.22142475 -0.00256808 -0.00370255 -0.00535414 -0.04235054 -0.17761104 -0.84375884
C 2.23475342 2.82947467 0.07661802 0.00428002 -0.03996377 0.04727255 2.45634620 -33.98061832 51.98290118
C 7.96310789 4.09582495 4.24325058 0.00385783 -0.00502568 0.00614095 -0.00015942 1.59184277 1.46984887
C 7.37476510 1.55165620 3.52934508 -0.00565487 0.00333225 -0.00785411 -0.42316402 -0.50778212 -1.04365288
C 7.58177563 5.52651359 3.71247604 0.00577392 -0.00749806 0.00026234 -2.14539713 0.07057858 -0.18347314
C 3.24753999 9.27636410 7.36518417 -0.00661200 -0.00492029 0.00412619 -0.95103687 -0.53376859 -0.44311855
C 7.96274498 6.37200306 7.42264099 0.00479258 0.00199547 0.00748502 1.63723412 -0.39234292 -0.53771596
C 6.25110575 9.45493435 1.57184207 0.00049785 0.00199516 -0.00775978 -2.93263025 -2.76154707 -1.05029979
C 7.54273065 5.91475794 1.29216416 -0.00381622 0.00087598 -0.00557156 2.09914351 0.86651993 1.60406462
C 5.37288004 1.67838828 4.87825729 -0.00526758 -0.00454593 -0.00001832 2.22177255 0.63684217 1.15618712
C 4.12886327 1.88252974 9.55148455 0.04320983 -0.00735546 -0.02272432 37.90965408 -7.43227936 -27.40887986
C 8.43277823 0.43774178 9.53368707 -0.01168016 -0.00193785 0.00637711 -4.57704057 4.78612337 -2.36510978
C 8.79172449 1.26128644 4.17166829 -0.00705960 0.01021721 -0.00945340 -2.62439776 4.95644701 -3.63916132
C 9.51143425 0.12915793 3.34646311 -0.01383345 0.01398373 -0.02140329 -23.14856347 21.99607507 -26.00847302
C 4.92037874 2.66635347 1.85691593 -0.00449878 -0.00980018 0.00533168 3.01871033 -1.90126965 -2.47537409
C 6.73546559 8.57537491 7.33283503 0.00131291 -0.00823823 -0.00544564 0.14271068 -3.44360192 0.07301078
C 4.54467584 6.13453365 6.32723074 -0.00184062 0.00668735 0.00549511 0.20798235 0.18347927 0.75778877
C 0.73864028 7.43488060 0.56632566 0.05386796 -0.01312614 0.02314648 58.52973425 -15.40316639 25.59373083
C 9.57108243 4.76056207 2.44073439 -0.00446772 -0.00024950 -0.00571680 -5.00470192 -3.91275552 0.59455497
C 0.89466817 3.97741629 1.55434997 0.00025655 0.00351002 -0.00308545 -1.01485476 -0.66293407 1.28115709
C 8.46157172 5.88148153 2.56062257 0.00932120 0.00169683 0.00554671 1.09417676 0.73521537 -1.11006774
C 3.10561973 1.11143804 1.35737928 0.00354190 0.00184692 -0.00742966 -1.43862609 -0.55051556 1.96949883
C 0.78398602 1.00244063 6.97881662 0.00454816 0.00304662 0.00719314 0.93397961 -2.55197612 1.43536671
C 4.55809645 9.09793893 7.06456524 0.00371091 0.00539887 0.00728956 -2.77735880 0.27371012 -0.46227998
C 5.09157930 0.77333000 6.01718566 0.00542398 0.00931534 0.00917814 1.97854165 3.55865034 1.92325147
C 7.03172428 4.78358912 9.32048724 -0.00300345 0.00334176 -0.00862975 -6.19372212 4.16437496 -3.80174843
C 4.95719093 5.16523768 0.77430036 0.00951284 0.00668243 -0.00612368 4.63560528 0.55955382 1.35429661
C 2.06616549 5.47629705 6.43995522 0.00051026 -0.00456380 0.00178582 -2.17907464 -0.22618523 0.35006546
C 3.41553664 5.21968458 7.00740422 -0.00470181 0.00261661 -0.00348370 0.17815502 -0.51778358 0.03006676
C 6.75140854 7.05996501 7.81375204 -0.00313516 -0.00403998 -0.00520895 0.14017036 0.78429386 2.23828109
C 2.97898144 3.70046397 2.64755192 0.00264284 -0.00335546 0.00203794 0.15286553 1.84381995 0.26396138
C 5.18768728 5.56351396 3.95472510 -0.00010155 0.00691726 -0.00424190 -0.27095962 -0.71380056 -0.59006723
C 9.35397491 9.21573122 4.11204797 -0.02499974 -0.02107682 0.00236768 -28.86726122 -25.14115646 7.66755550
C 3.75690834 5.24017877 8.46943715 -0.00102990 0.00072788 0.00645955 -0.07031484 -0.47526495 -0.69112855
C 2.23683574 7.68127987 0.30275735 -0.00077347 0.00127370 0.00776476 0.12644916 5.21302497 3.10317306
C 0.31952678 0.91972786 0.05686495 0.01118181 -0.00890459 0.00161273 13.56649207 -0.84016559 6.24586442
C 4.09897972 9.62515216 4.69644852 0.01124421 -0.00013081 -0.00426271 11.14017308 -6.33124694 0.59448448
C 0.72717617 3.44595215 9.10641865 0.00701151 0.00137305 -0.00895668 4.83586410 2.76581365 -9.57374436
C 7.76111527 6.56700701 4.91955806 -0.00268365 0.00249295 -0.00382948 0.69979116 -1.03089474 1.62443571
C 6.82260518 8.18069669 3.39025586 0.00320168 -0.00799053 0.00006604 1.13653555 -0.39142854 1.64365258
C 9.59468850 9.24267705 9.65963355 0.00264502 0.00604880 -0.00107072 0.38967994 4.03768423 -4.39250609
C 8.24561524 5.08085890 0.19642586 -0.00055506 -0.00255725 0.01986116 1.69224823 2.94744376 21.21802540
C 9.05631133 6.02999813 8.41094427 -0.00062822 0.00554708 -0.00280866 -2.73754842 2.51199545 -0.35584143
C 0.99159329 6.52297851 2.95647144 0.00644800 -0.00484301 0.00706802 2.78276832 0.34477100 1.23634969
C 1.84488338 8.64612442 9.09430909 0.00418904 0.00005347 -0.00367765 2.10545498 -2.74103942 1.22807329
C 6.39352704 2.40163266 1.49636378 0.00024332 -0.00615409 -0.00558812 -1.07984925 1.80066802 -0.40309654
C 9.89399559 7.67383920 0.30690690 -0.04571825 0.01373079 -0.02217663 -54.23539801 11.45660345 -17.28734994
C 3.37044644 8.65950695 2.65677051 -0.00834261 -0.00435007 0.00067031 -2.58693099 -2.23331154 -0.00051168
C 8.83830755 1.18348192 5.77290978 -0.00585994 0.00742742 -0.00432310 -8.88202877 5.83960823 -1.70016684
C 3.75931194 3.75907266 6.57154655 0.00462579 -0.00396621 -0.00318382 0.43284387 -0.24617125 0.17336154
C 0.49245396 4.12101052 7.82037481 -0.00314797 0.01162809 -0.01192402 2.68159961 5.07295846 -3.78143294
C 6.90723025 3.75936117 1.40392926 0.00698564 -0.00375703 -0.00467237 1.10890171 -1.33993721 0.59347635
C 6.87258848 3.65402279 6.47525834 -0.00114118 0.00715681 0.00638887 0.15022607 -0.23895514 -0.54643749
C 2.20196128 5.18850430 0.22504880 -0.00555486 -0.00142615 0.02750558 -11.24386076 -5.30420123 39.82232036
C 5.92996902 2.20758016 0.08886365 0.03044464 0.04651207 0.04351986 21.94831545 38.91888871 30.20938599
C 7.32980358 3.14997092 7.85546696 0.00607364 0.00657844 0.00544643 -1.04552647 -0.30495435 -0.69843696
C 1.88529948 6.02136805 9.66678878 -0.01968652 0.02037443 -0.02091295 -16.74576070 18.56418903 -25.34952534
C 0.06370349 5.82777328 5.37859813 -0.00372485 0.00918995 0.00496205 -0.36958766 3.50218269 -0.91141754
C 3.77386288 5.80812889 3.76858350 0.00674519 0.00103777 0.00125869 0.47878568 1.54082836 0.43617060
C 4.52734453 2.80217396 4.39256924 -0.00519033 -0.00370889 0.00613701 0.31157332 0.29168596 0.71646534
C 6.08689547 8.19641614 0.73548663 0.00923685 0.00256160 0.02176063 10.06185359 3.64856599 18.93172672
C 9.31982633 7.88264386 3.87356140 0.00005167 -0.00468128 -0.00273244 0.31204939 -1.33232849 2.48013699
C 7.02700770 7.82682832 4.74412260 0.00236497 0.00486846 -0.00637527 -0.72880342 1.61867731 -0.64201343
C 4.87600124 8.73676002 5.70838728 0.00195271 -0.00302942 0.00594627 0.45178928 -3.28500326 0.79417398
C 0.76186658 1.11738646 9.61194404 0.00513009 -0.00974885 -0.00281556 2.27687759 -5.39097528 2.81437101
C 3.50885234 7.04577064 4.45359648 0.00036192 -0.00717150 -0.00620231 0.49690930 -0.87671860 0.32667211
C 3.44791464 8.23096990 1.33265576 -0.00377664 -0.00095099 0.00762753 -2.39330036 2.48749050 1.24925994
C 5.62698246 6.06989825 7.44501531 0.00650664 0.00168393 0.00363431 0.06020957 -0.16015640 -2.11874500
C 4.54027793 2.79915735 0.44933352 0.00844705 0.00225928 -0.00039696 3.03524536 3.73936139 3.58397883
C 1.19480483 7.76860638 3.55756771 0.00257916 0.00139040 0.00216530 5.21426533 -1.33443062 1.46292229
C 3.30768931 2.55911747 8.67465864 -0.00406978 -0.00483031 -0.01195145 1.09775025 1.59892781 -6.17469945
C 6.25428593 5.05844430 6.35491198 -0.00600450 0.00185241 -0.00129383 0.84541403 -0.32835488 1.32998282
C 9.05514505 3.73546300 3.39503803 -0.00200316 -0.00158694 -0.00725140 1.57298395 1.71806331 -1.09404739
C 2.76986163 4.82588185 9.45843065 0.01742338 -0.01350079 -0.02493680 21.63991582 -23.28532725 -29.22282093
C 5.28536049 9.28348477 9.39562493 -0.00614292 0.00534978 -0.00000559 -2.27411629 3.29888790 -5.37904648
C 0.48490873 0.94567061 1.47423977 0.00039653 -0.00558842 0.00105825 0.27338588 0.34846787 -5.43134220
C 1.77675662 1.66647799 2.10159132 -0.00069417 -0.00200210 -0.00640028 -3.78631953 -2.66420460 -0.90027048
C 6.47723092 0.02709867 6.46250509 -0.00051278 0.00306576 -0.00132735 -1.50303216 5.53460235 -8.17231933
C 3.86497592 2.60831840 7.39660356 -0.00294583 -0.00353732 -0.00236222 -0.95044715 1.08121112 0.90679333
C 0.64727450 9.41706936 1.93325364 0.00382263 0.00688370 0.00416839 -0.45531129 5.86162194 -3.39906190
C 5.15366506 5.13571882 5.35503435 -0.00211727 0.00635593 -0.00650992 0.76599151 0.14220263 -0.30941642
C 7.27305532 1.73083447 7.66852397 -0.00309635 -0.01150481 0.00481834 -1.44820233 -3.55848201 0.11045834
C 7.73054229 0.52497350 8.30187222 0.00438592 -0.00030626 -0.00426246 0.63146661 3.97168420 2.50295971
C 8.72974819 3.67999505 8.05679072 0.00286412 0.00319756 -0.00734221 -3.27163421 -0.19292263 -0.13178635
C 2.24218227 8.95729859 6.35858127 -0.00264420 0.00624924 0.00643676 -1.80869562 -1.84076852 4.47023109
C 0.33560832 2.81199184 5.55547451 -0.00161297 0.00137559 -0.00166989 3.85086920 2.37455418 -8.00291486
C 6.06372487 5.74746906 9.75493969 -0.00867137 -0.00775966 -0.00801119 -1.65875956 -1.11716968 -7.37172673
C 7.60217025 5.69326426 6.15110768 -0.00274475 0.00218393 0.00425086 0.88386687 -0.17508314 -1.16225158
C 2.68319879 9.19171322 5.03518404 -0.01223523 -0.02251649 -0.00514948 -6.98118749 -16.77992399 2.65520487
C 2.82895163 4.95577453 3.26948811 -0.00070945 0.00303370 0.00123802 -0.25164368 -1.74486687 -1.64343843
C 0.51630213 8.90965454 3.22433087 0.00815894 -0.00950508 -0.00531140 10.83971128 -3.73361384 -7.17600805
C 9.05780459 7.33189673 2.59295185 -0.00345172 -0.00154360 0.00173051 -6.33955707 -2.36603073 -0.05313476
C 4.37286052 7.34862035 5.53694488 -0.00416304 -0.00439960 0.00453367 -2.24959016 -1.09534256 -1.87029048
C 8.12907678 4.29189778 5.81249227 0.00006236 -0.00523046 0.00184184 0.68612647 0.57700445 -0.10066079
C 9.31434480 3.87657102 6.59879291 -0.00119645 0.00210589 0.00236334 -1.59654469 0.46026734 0.64839469
C 9.97905213 3.38785951 0.13010963 -0.00621978 0.00612778 0.00351798 -2.79323010 1.24055126 12.17801415
C 4.13720531 1.54066923 2.34979336 -0.00698925 0.00482882 -0.00608804 -0.78315475 -2.56541077 -0.22755970
C 6.05929855 0.72318744 3.87126802 -0.00072988 -0.00142182 0.00405892 -0.69320320 4.04513557 -1.44177908
C 7.77138328 9.45414036 1.60395633 -0.01167260 -0.04261723 0.02356072 -9.37593745 -40.89988311 18.16090852
C 1.01215833 8.32172049 6.88939382 -0.00265630 0.00612634 0.00216879 0.26236308 1.40881366 0.65968245
C 7.92614925 9.21199661 7.85317437 -0.00568134 -0.00564947 0.00314126 2.93638652 -1.78282318 -1.99951533
C 5.60890752 9.39144183 7.88181811 0.00202421 0.00498383 -0.00120607 0.63907374 -0.09461322 2.70337937
C 6.52661223 3.55451964 9.03108107 -0.00426629 -0.01009623 0.00212978 1.37300646 -5.16830462 0.29555076
C 1.13231188 7.75756786 8.21092650 -0.00617864 0.00411462 0.00170256 0.87011049 1.93392277 -2.62399933
C 5.52699497 1.53163887 9.50320357 -0.02362918 -0.05044615 -0.04352432 -21.07325429 -35.66509773 -32.70949432
C 6.61560328 7.10490141 9.43015903 -0.00471647 -0.00407994 -0.00704469 -1.49320088 -3.26487349 -3.29567246
C 8.23112954 9.04663974 9.29193846 -0.00077726 -0.00283365 -0.00640339 2.22380552 -3.81768101 -1.17476767
C 9.10159868 9.93664558 5.43743877 -0.03939050 -0.01091572 0.00407764 -40.82914948 -3.83737762 7.16754914
C 1.18453591 5.24209242 1.09881001 0.00049188 -0.00616953 0.00247975 2.23069805 -3.46553125 -0.54839484
C 2.94659262 6.33797885 0.30971742 0.00298670 0.01046539 0.00686905 7.23030804 9.97510897 7.92132860
C 2.56575194 8.08781670 3.96869770 0.00677685 0.00189452 0.00311864 -0.33634581 -1.20048118 -1.71555677
C 4.30936685 6.37278576 0.61228494 -0.00045504 -0.00446061 0.00462068 -5.30777408 -1.38519338 3.24593348
C 5.04767447 5.57094405 8.67045021 -0.00908768 0.00048510 0.00336909 -0.32901518 0.37606726 -2.61697836
C 4.93652851 0.48568153 2.82739593 0.00472586 0.00400186 0.00072538 3.00594242 2.33616583 0.96961600
C 2.03325973 1.30869362 4.76054823 -0.00181002 -0.00192761 -0.00026474 -0.19854405 0.76875144 -3.84152810
C 7.91104245 0.38931197 1.25861879 0.01143240 0.04315979 -0.01769997 6.24904112 41.29880771 -12.39565145
159
Time=2.00000000 pbc="T T T" Lattice="10.00000000 0.00000000 0.00000000 0.00000000 10.00000000 0.00000000 0.00000000 0.00000000 10.00000000" energy=-199.46354866 virial="347.71329710 -4.05625740 -21.44203120 -4.05625740 321.64116956 -20.95360665 -21.44203120 -20.95360665 271.61829103" stress="0.41321038 -0.00405626 -0.02144203 -0.00405626 0.37077607 -0.02095361 -0.02144203 -0.02095361 0.32893223" Properties=species:S:1:pos:R:3:vel:R:3:forces:R:3
C 0.24432284 9.90348625 4.19625358 0.07159612 0.01583243 0.03542433 25.30289054 7.22191389 5.47459893
C 9.52710639 2.57313061 3.83880627 0.01559371 0.00075893 -0.00014258 6.44007730 -3.57762792 2.89762239
C 3.28923794 1.99526523 0.09178056 -0.06769265 0.00846581 0.04491656 -21.45801222 -5.06592618 21.74264659
C 4.15492874 2.93528872 3.00393936 -0.00136711 0.00021215 0.00537306 -1.57949988 0.48392674 2.35291384
C 0.15321014 8.84909493 0.81530828 -0.00015075 0.00070894 0.01421272 -0.62117808 2.08176684 3.67898537
C 4.50494993 9.14552072 3.31474096 0.00344191 0.00737151 0.00315831 -2.59601316 3.06122477 -0.29463040
C 7.31402640 7.35268961 1.01391890 -0.00808494 -0.00048867 -0.00849407 -1.68498264 -1.55077960 -0.26090315
C 9.66860931 2.34507378 6.60274463 -0.01558563 -0.01108643 0.01285322 -6.02855052 -3.03913709 3.81110264
C 3.91335038 9.92258324 9.71859292 -0.00442212 -0.00879035 -0.00757036 1.05505615 -4.81358843 -0.53533067
C 9.42522632 4.46960581 0.96722743 -0.00664863 0.00715120 -0.00494535 -1.07175923 -0.54707975 -0.40304705
C 3.00039252 0.28305798 4.66187444 -0.00900525 0.03845588 -0.00579245 -4.36575737 13.31357750 -2.39293757
C 0.72309664 6.41279315 1.63452760 -0.00305216 0.00452165 -0.00053011 0.91424163 -0.28353337 1.06002092
C 0.91167570 5.49829805 7.41536781 0.00259321 0.00403032 -0.00217831 1.92351717 -2.11412253 1.10990836
C 0.19895720 9.82209382 5.47438157 0.07389257 -0.01050780 0.01225089 21.17125446 -3.27625039 5.84740726
C 9.23430596 7.04081971 9.40639993 -0.00990356 -0.00001819 -0.01252764 -6.09272492 -4.17724365 -7.66295229
C 1.60106897 5.49267003 3.70953022 -0.00296995 0.00452750 0.00873180 -0.14862668 -0.47481498 1.54216907
C 5.47255895 7.93796771 9.71024908 -0.01800194 0.01150254 -0.02663250 -4.09622612 3.12451297 -12.21108111
C 9.73781659 2.64546099 8.21002890 -0.00959915 -0.01389995 0.00526716 -1.53583767 -5.37890716 1.48207846
C 6.44121124 8.75507057 5.73611437 0.00546227 -0.00520094 -0.00546972 -0.84263705 -1.34848811 1.40720630
C 7.76239155 8.06863716 2.22255376 -0.00022823 0.00080502 -0.00880018 4.79048975 0.05077252 -0.45654646
C 2.00535941 3.12198519 1.70723894 -0.00448097 0.00434519 0.00426588 -0.53124449 -2.26397134 -0.14776181
C 2.96601507 9.39394636 8.73868403 0.00439898 -0.00230574 0.00063263 -0.74474963 1.06981300 0.28335805
C 9.23883572 9.40671954 6.93352430 0.00069193 -0.00121831 0.00058085 1.50301431 -3.15692722 0.54762260
C 6.16830275 5.38849285 3.06560285 0.00573315 0.00004842 -0.00560225 1.52401275 -0.16978312 1.65508074
C 2.22014164 3.46523907 9.24844428 -0.00151399 0.06029634 -0.07010020 1.26584639 13.03672865 -21.21908781
C 9.52363542 1.62073018 9.35129397 -0.00919859 0.00573652 -0.00480419 -4.57776871 3.52646820 -2.84778944
C 1.12679185 1.62558764 5.75512140 0.01126566 -0.00040141 0.00236544 4.95341895 1.58066080 0.51701790
C 1.23685648 1.38558450 3.51072850 0.00110863 0.00425291 0.00638058 3.77237054 3.59308061 0.19005094
C 0.92994933 6.32728062 8.65286876 0.00733999 -0.00120152 -0.01233198 0.96482781 1.78107337 -4.67889851
C 4.69198776 7.71875668 0.78086571 0.00270225 -0.01038140 0.00989515 -2.31086580 -4.44266806 4.11627509
C 9.27791973 6.99366944 4.95318049 0.00583483 -0.00798478 0.00664591 -1.12507492 -5.65269538 2.12195583
C 7.57657369 3.72528753 0.15485376 0.00124477 -0.00727594 0.01417969 -2.95527698 -2.71362004 3.84015851
C 8.79303176 1.60412454 1.19520216 -0.00055006 0.00516040 0.01206860 1.44192208 0.84154565 5.36457400
C 7.40641614 1.31496162 6.25393781 0.00362502 -0.00065285 -0.00628733 -2.35038894 0.16791509 -0.70895124
C 7.50712786 1.58675811 2.03661743 0.00808421 0.00980000 -0.00648505 -0.01707040 2.55391375 0.14105639
C 8.50557413 4.74897067 9.06035456 0.01585244 0.00703182 -0.03672203 4.92505639 4.38927361 -17.79203582
C 5.89756844 1.27887311 8.18037494 0.00036087 -0.00569725 0.00049732 -0.35085553 -1.27330552 -5.15130081
C 7.17426043 2.85561248 4.21342320 -0.00557761 -0.00157810 -0.00390153 -1.60256097 -0.21375599 0.48662721
C 1.41443192 5.49060086 5.14965230 -0.00730014 -0.00216900 0.00157176 -1.24671708 1.07747586 1.07317501
C 5.80443268 8.92171085 2.89566432 0.00409859 -0.00689538 0.00569269 3.01645920 -0.70544523 -0.56525989
C 6.64001752 2.44409865 5.48910044 -0.00722465 -0.00616263 0.00084222 -0.23543151 0.40151556 0.53493988
C 4.40359531 3.84409062 5.38183639 0.00308138 0.00705007 0.00491115 -0.59876886 -0.64373745 -1.51981643
C 6.30040033 5.04394661 1.63097663 0.00175421 -0.00235237 0.01264469 -1.04837709 -0.17910503 4.90997382
C 4.80672385 1.56428490 7.21573171 -0.00253765 -0.00385221 -0.00613340 0.11809881 -0.19498787 -1.09637171
C 2.24002005 2.77586245 0.14476969 0.00518114 -0.05844153 0.07842896 -0.21282198 -12.02359002 25.58742741
C 7.96696566 4.09143863 4.24998191 0.00385796 -0.00377543 0.00720923 0.00049361 1.52093226 1.18984773
C 7.36894027 1.55478449 3.52107178 -0.00592529 0.00298647 -0.00854254 -0.25012031 -0.35311010 -0.67033190
C 7.58668784 5.51904388 3.71266469 0.00403632 -0.00733796 0.00014971 -2.18073369 0.32802650 -0.09694516
C 3.24054601 9.27122942 7.36913239 -0.00714500 -0.00531682 0.00370556 -0.37597657 -0.45346646 -0.60413258
C 7.96819517 6.37384095 7.42991003 0.00598441 0.00168291 0.00682367 1.33005395 -0.38585087 -1.10884798
C 6.25042569 9.45582032 1.56366043 -0.00151553 -0.00023149 -0.00828613 -2.08009580 -2.78216370 -0.26015700
C 7.53975756 5.91598196 1.28723688 -0.00212644 0.00149745 -0.00418708 2.10792025 0.68074963 1.84288233
C 5.36850484 1.67409815 4.87870336 -0.00345516 -0.00397294 0.00094564 2.29062692 0.78972642 1.24379963
C 4.18729965 1.87218907 9.51775135 0.06578428 -0.01156326 -0.04055409 18.29410747 -3.04389129 -16.98200369
C 8.41925969 0.43772630 9.53911423 -0.01531644 0.00180558 0.00461075 -4.47624891 4.53393179 -2.03262130
C 8.78361079 1.27349443 4.16075321 -0.00902559 0.01413486 -0.01212591 -2.27033079 4.79733780 -3.01461100
C 9.48830309 0.15197647 3.31461342 -0.02857447 0.02807334 -0.03598076 -13.55224420 13.08290933 -10.28515823
C 4.91709244 2.65578964 1.86125337 -0.00201498 -0.01119678 0.00334677 3.16521843 -1.57584694 -2.46646900
C 6.73683582 8.56575355 7.32741871 0.00138589 -0.01092640 -0.00534303 0.03898549 -3.24916943 0.18245644
C 4.54291876 6.14129470 6.33303022 -0.00165736 0.00674998 0.00606751 0.24828342 -0.02753921 0.66731646
C 0.81601692 7.41556771 0.59975196 0.08967822 -0.02272087 0.03994384 30.62730938 -8.48488744 16.22677006
C 9.56460455 4.75874099 2.43525639 -0.00846319 -0.00338867 -0.00520086 -4.94283424 -3.90286358 0.69000346
C 0.89451709 3.98066004 1.55177910 -0.00076000 0.00288297 -0.00191617 -1.51605775 -0.89823858 1.63002044
C 8.47133239 5.88347366 2.56572341 0.01001114 0.00223819 0.00460715 0.62358243 0.61260907 -1.22914366
C 3.10858379 1.11306384 1.35074067 0.00226453 0.00108265 -0.00531698 -1.74165563 -1.35229635 3.29046776
C 0.78890932 1.00446224 6.98658628 0.00521913 0.00106179 0.00814338 0.73654484 -2.38967533 0.93044094
C 4.56069182 9.10344774 7.07166912 0.00135548 0.00555826 0.00677823 -3.08698471 0.12312505 -0.81079265
C 5.09779797 0.78407468 6.02713629 0.00694485 0.01198273 0.01056080 1.80795668 3.08237765 1.51915209
C 7.02623310 4.78860351 9.31033051 -0.00755210 0.00621195 -0.01155430 -5.13108744 2.98156677 -3.47952276
C 4.96856568 5.17214486 0.76872063 0.01330622 0.00711777 -0.00499495 4.80880271 0.52431966 1.45592680
C 2.06580052 5.47164241 6.44188164 -0.00127435 -0.00469113 0.00199066 -2.26406820 -0.09083164 0.15991930
C 3.41090639 5.22209321 7.00393259 -0.00442743 0.00218022 -0.00350039 0.50496325 -0.56870065 -0.07161154
C 6.74832968 7.05624005 7.80944210 -0.00295394 -0.00339411 -0.00336685 0.31102589 0.82373403 2.34800824
C 2.98168567 3.69784909 2.64969588 0.00272472 -0.00172699 0.00232636 0.05099210 2.21058241 0.45412846
C 5.18747690 5.57014451 3.95024620 -0.00014784 0.00630120 -0.00473863 0.15570962 -0.81999259 -0.64663826
C 9.31738053 9.18455636 4.11749535 -0.04476521 -0.03631563 0.00675579 -20.34298333 -12.79903010 3.25756717
C 3.75585019 5.24071576 8.47561911 -0.00109602 0.00060988 0.00568656 -0.09428899 0.18148895 -1.23341022
C 2.23611305 7.68464739 0.31176851 -0.00021285 0.00534950 0.01005756 1.26933072 4.93451857 2.60523648
C 0.33615762 0.91048581 0.06098636 0.02180764 -0.00821824 0.00442210 12.88871024 2.54898093 0.74864185
C 4.11469842 9.62247838 4.69242459 0.01877394 -0.00467323 -0.00362835 7.60665478 -4.97804202 0.98488334
C 0.73613002 3.44843611 9.09361663 0.00988926 0.00375175 -0.01641391 2.32889028 3.15644586 -8.99257592
C 7.75871269 6.56908590 4.91638104 -0.00209102 0.00158833 -0.00243685 0.77570453 -1.22134538 1.84280821
C 6.82626336 8.17254894 3.39098207 0.00392882 -0.00831214 0.00131327 0.67382353 -0.40929421 1.46159273
C 9.59749004 9.25034761 9.65679856 0.00324517 0.00912391 -0.00429763 1.10451053 3.61842098 -3.64155059
C 8.24573988 5.07948551 0.22480933 0.00107847 -0.00090541 0.03483016 2.37476430 1.16514862 16.05039648
C 9.05458357 6.03655417 8.40799269 -0.00286737 0.00742197 -0.00309750 -2.83729678 2.15593131 -0.36329529
C 0.99915899 6.51827398 2.96403604 0.00857606 -0.00449581 0.00809234 2.51548468 0.51965007 1.31391003
C 1.84991809 8.64507695 9.09112471 0.00572076 -0.00213684 -0.00268989 1.70806591 -2.71220767 1.23114148
C 6.39333663 2.39620182 1.49061376 -0.00038558 -0.00449112 -0.00495260 -0.48592605 2.33963830 1.98536065
C 9.82649349 7.69217157 0.27778674 -0.07731667 0.02038509 -0.03213550 -24.43540071 5.11066556 -7.50732181
C 3.36106478 8.65425986 2.65744061 -0.01015737 -0.00599029 0.00081362 -1.93127665 -1.85035846 0.35732458
C 8.82888011 1.19325485 5.76790380 -0.01277980 0.01187537 -0.00580563 -8.34639196 5.23447788 -1.99090469
C 3.76411158 3.75500757 6.56843235 0.00490061 -0.00407233 -0.00294105 0.25138300 -0.01802503 0.43106351
C 0.49038306 4.13467619 7.80693196 -0.00122326 0.01573882 -0.01501184 2.11035646 5.16155031 -3.90633710
C 6.91466129 3.75506595 1.39949525 0.00765266 -0.00484910 -0.00393964 0.55177315 -1.37901846 1.23081899
C 6.87150764 3.66108362 6.48142773 -0.00102894 0.00682162 0.00591002 0.12921355 -0.59557497 -0.64575258
C 2.19189028 5.18494770 0.26854916 -0.01137810 -0.00468618 0.05472841 -3.25428680 -2.81230578 27.95456017
C 5.96922928 2.26972414 0.14451722 0.04252644 0.06806165 0.05780916 8.13182561 14.73324411 5.36678327
C 7.33545729 3.15642687 7.86063285 0.00512172 0.00596552 0.00474113 -1.32448392 -1.22103034 -1.05753168
C 1.85888697 6.04919885 9.63569410 -0.03114914 0.03291828 -0.03963926 -11.79280040 12.66632608 -21.27349998
C 0.05983020 5.83836990 5.38319411 -0.00396272 0.01193534 0.00424651 -0.22264463 3.33304654 -0.87007485
C 3.78080037 5.80978554 3.77001739 0.00695139 0.00219590 0.00147642 0.03459574 1.34257601 0.10589463
C 4.52227934 2.79858223 4.39899402 -0.00491961 -0.00342109 0.00667957 0.36244728 0.42483908 0.63435775
C 6.10017370 8.20044320 0.76485126 0.01564419 0.00471762 0.03483301 5.89056105 1.71927721 13.61466691
C 9.32000333 7.87742744 3.87182512 0.00047406 -0.00635015 -0.00090687 0.73959387 -2.82266379 2.06500753
C 7.02907995 7.83234693 4.73748947 0.00182737 0.00602883 -0.00682083 -0.60967781 1.27030552 -0.46730676
C 4.87813541 8.73241116 5.71465253 0.00224690 -0.00562424 0.00650774 0.28067071 -3.17535059 0.60373858
C 0.76791118 1.10547230 9.61025888 0.00541283 -0.01434006 0.00028819 -1.57294504 -6.03979898 4.91304597
C 3.50941385 7.03824701 4.44752538 0.00079115 -0.00777025 -0.00581879 0.57173113 -0.61399504 0.62818126
C 3.44317672 8.23101802 1.34078505 -0.00557995 0.00099541 0.00856164 -2.09640341 2.35847720 1.07640664
C 5.63351329 6.07151785 7.44779862 0.00634917 0.00147297 0.00190417 -0.45227091 -0.36507719 -2.18880729
C 4.54994410 2.80291856 0.45037608 0.01075888 0.00595627 0.00264182 2.72053971 5.46505517 3.98169283
C 1.19947831 7.76946081 3.56032060 0.00674849 0.00021752 0.00329326 5.16616031 -1.58570492 1.34537239
C 3.30406045 2.55492937 8.66022710 -0.00308561 -0.00335049 -0.01809095 1.35254122 2.08541207 -9.11084840
C 6.24862099 5.06016483 6.35415234 -0.00523354 0.00162794 -0.00019932 1.07406279 -0.23051214 1.39502213
C 9.05377368 3.73456612 3.38734720 -0.00074513 -0.00026580 -0.00806091 1.55912993 1.57118042 -0.92138481
C 2.79597676 4.80302842 9.42175639 0.03112869 -0.02934532 -0.04416858 12.48229024 -16.16291516 -18.65866699
C 5.27830417 9.29015956 9.39345883 -0.00790896 0.00801395 -0.00443228 -2.12281300 3.33411620 -5.64213418
C 0.48541507 0.94022215 1.47311650 0.00064199 -0.00520678 -0.00319229 0.33772129 0.60171359 -5.15125727
C 1.77454166 1.66340580 2.09482944 -0.00367192 -0.00416905 -0.00693734 -3.62742056 -2.73085687 -0.43685792