159
Lattice="10.0 0.0 0.0 0.0 10.0 0.0 0.0 0.0 10.0" Properties=species:S:1:pos:R:3:forces:R:3 Time=1.0 energy=-139.29905528964628 pbc="T T T"
C        0.16311452       9.88399725       4.15623920      45.15450349      12.96163481      23.53661975
C        9.50245749       2.56812285       3.84685782       6.77299788      -3.63086070       2.78564347
C        3.35647337       1.97170082       0.04868431     -46.63519119       4.31212580      33.32759758
C        4.15185325       2.93184812       2.99904661      -1.30534173       0.45840946       2.09750624
C        0.15989341       8.84454468       0.79088300       1.32983957       0.31653445       5.24106870
C        4.49661938       9.14315947       3.30839144      -1.88955034       3.39339858       0.17324003
C        7.32463059       7.35696605       1.02527472      -1.57294904      -1.32414631      -0.29984067
C        9.68227431       2.36245625       6.58909790      -7.29828230      -3.12790508       4.98583081
C        3.92664956       9.93757037       9.72489775       0.90998199      -4.30160489      -0.91712240
C        9.43656751       4.45702951       0.98213512      -0.32278577      -0.52414697      -0.59597956
C        3.00970162       0.24326388       4.67361389      -6.40439270      23.61851592      -5.18822524
C        0.72692912       6.41066700       1.63632920      -0.17963863       1.55722314      -0.54175667
C        0.91752386       5.48635742       7.42222238       1.80786567      -2.04732986       1.42178400
C        0.12705588       9.83750047       5.46338930      48.90480992      -7.83705496       4.53015981
C        9.24567254       7.03677506       9.42679362      -5.11677962      -4.26208425      -6.23176898
C        1.61433559       5.48069548       3.69997855      -1.12171472       0.34338798       1.61898096
C        5.49927823       7.92382974       9.73877682      -8.35923034       2.72575962     -19.37683224
C        9.75834229       2.66975512       8.19794003      -1.42420473      -5.48264570       1.39298826
C        6.43063747       8.76291418       5.74295981      -0.34907824      -1.78170491       0.85555950
C        7.77607589       8.07420889       2.24338594       3.85406701       1.20088008      -1.66096817
C        2.01645562       3.10804977       1.69911115      -0.69839084      -1.31234619      -1.08032526
C        2.95738980       9.40261620       8.73661026      -0.38950019       1.03830015       0.42591925
C        9.23457040       9.40519477       6.92450850       1.93265306      -3.27619454      -0.07666463
C        6.16280431       5.38867254       3.08504543       1.99721702      -0.18562755       0.43698490
C        2.22422498       3.39215019       9.31062836       0.14252227      35.23919224     -51.60545562
C        9.53170880       1.61107796       9.35774903      -8.83632290       7.76947431      -8.44658605
C        1.11279590       1.63098792       5.74946733       5.97503504       1.21615122      -0.12757920
C        1.23749432       1.38222409       3.49416759       4.06731250       3.20069229       1.14557355
C        0.91724720       6.32536538       8.67078375       1.84206982       0.93421513      -4.53723661
C        4.68308361       7.73458084       0.76928398      -2.75392134      -5.23201890       4.36607589
C        9.26352769       6.99912860       4.95031806      -0.70843255      -5.59182343       2.05060745
C        7.56092360       3.72696809       0.13586177      -3.15762219      -4.17278549       4.86238004
C        8.79635250       1.58962171       1.17703179      -0.13176850      -0.05428326       5.87519509
C        7.39788943       1.32384578       6.26858589      -1.56495811      -0.49747180      -1.45959138
C        7.49125658       1.57051253       2.05434781       0.41364651       1.99726099      -1.06640242
C        8.49186398       4.74981164       9.10102127       7.26961632       2.38707388     -24.68053906
C        5.89920061       1.28623987       8.17310686      -0.89954385      -1.17990798      -1.62245330
C        7.17852934       2.85746061       4.22958565      -1.19527435      -0.21597636      -0.38488880
C        1.42533911       5.50386257       5.15477531      -1.21891997       0.85323409       0.43226445
C        5.79817030       8.93252889       2.88663558       3.35385278      -1.11591203      -0.30878843
C        6.65892340       2.46373138       5.48347992      -0.90097637      -0.49315091       1.17595596
C        4.40041286       3.83640586       5.36700799      -0.92440945      -0.52489026      -0.63164564
C        6.29446747       5.04893172       1.61610211      -0.95414357      -0.19329726       5.76065527
C        4.81423406       1.56741257       7.22544560      -0.18409985      -0.20739512      -1.06223640
C        2.23117135       2.84154281       0.08018885       2.94292667     -36.59129339      56.80005159
C        7.95529743       4.10332321       4.24297194       0.35170019       1.31817736       1.40606541
C        7.37443928       1.54674573       3.53120083      -0.37045913      -0.42199405      -0.80038627
C        7.57729437       5.53575281       3.71366093      -2.07729476      -0.20978228      -0.09644840
C        3.25555898       9.27362115       7.36064399      -1.78871081      -0.48939754       0.08782236
C        7.95897574       6.36639220       7.40653260       1.86502731      -0.15378958       0.28770849
C        6.24610132       9.44223758       1.58496161      -2.79676922      -2.34356600      -1.71693022
C        7.54986008       5.91915513       1.30442869       1.77969354       0.73669587       1.18010037
C        5.38696766       1.67821998       4.87768811       1.81489783       0.75319377       0.97898091
C        4.12014164       1.88906951       9.55174073      43.85965509      -7.92120342     -30.24952325
C        8.44836025       0.43728664       9.52153107      -4.70082901       4.74310760      -2.24182035
C        8.80298035       1.25424436       4.18475667      -3.15952989       5.25569782      -4.22378703
C        9.51182388       0.13176276       3.34295956     -25.19708078      23.17014016     -28.97895644
C        4.93367349       2.66801277       1.85636227       2.07075928      -1.95039102      -1.80234162
C        6.73608893       8.58603233       7.34434289       0.09579245      -3.73444480      -0.29505916
C        4.54183868       6.12492402       6.31555849       0.19223952       0.49278262       0.97315368
C        0.73075204       7.43650709       0.55712610      62.25883101     -15.75582234      26.29192147
C        9.56592209       4.75363189       2.45344230      -4.87207970      -3.57815638       0.25408163
C        0.88750829       3.96879975       1.55052751      -0.66856151      -0.81284397       1.33564684
C        8.45217549       5.88284739       2.56071973       1.47919667       0.78100143      -0.89736193
C        3.09555552       1.11171200       1.35900969      -0.90316662      -0.27374694       1.43419971
C        0.77893251       0.99878147       6.96908935       1.11009048      -2.65903392       1.68511791
C        4.54854635       9.08964804       7.06267028      -1.71751375       0.28037974      -0.21236404
C        5.08917852       0.76310590       6.00176826       2.12094388       3.94643291       2.36074408
C        7.02961723       4.78796788       9.33046778      -5.83038644       4.68195751      -4.11134282
C        4.94886620       5.16823883       0.77267024       4.66537308       0.43509960       1.42453207
C        2.06437324       5.47594576       6.43997621      -1.88366778      -0.25764570       0.61177429
C        3.42338538       5.21396487       7.01641307      -0.28581478      -0.40179169      -0.63031935
C        6.75739058       7.06163512       7.81177918      -0.06787730       0.81380635       2.14100562
C        2.98134135       3.71009649       2.64833623       0.24309570       1.10623662      -0.12833727
C        5.19094458       5.56235858       3.95397604      -1.08093168      -0.59229343      -0.18020804
C        9.36149582       9.21328520       4.11931011     -30.83314197     -26.95290400       8.07309445
C        3.75401095       5.24122584       8.45459256       0.15260498      -0.49133864       0.21400138
C        2.23120465       7.67680772       0.29161996      -0.17872924       5.30244231       3.40600720
C        0.29648032       0.92339905       0.06679242      -9.44216072     -13.63405605      31.93667429
C        4.10068184       9.62864370       4.69265518      11.77945574      -6.52380518       0.59853135
C        0.72943963       3.44688748       9.10485969       5.31742607       2.77206214      -9.53030866
C        7.76581146       6.55922819       4.92492343       0.47564306      -0.44177061       1.26574365
C        6.81958137       8.19430169       3.39723540       1.53394363      -0.68387294       1.83211553
C        9.59203752       9.24154043       9.66126606       0.25699586       4.06471902      -4.66213969
C        8.24315839       5.08120566       0.19178965       1.29182057       3.19196596      22.77081693
C        9.05517605       6.01973736       8.42036345      -2.61046604       2.74066855      -0.47704213
C        0.98528088       6.52351726       2.94919033       3.08965689       0.27025959       1.83869875
C        1.84108173       8.64132359       9.09951942       2.46435160      -2.47565000       0.89336934
C        6.39587917       2.40850973       1.49667643      -1.14031625       0.86169332      -1.23843323
C        9.89641316       7.66737485       0.30852463     -57.74526361      12.31676109     -17.28149871
C        3.38242388       8.65818249       2.65729281      -3.27802348      -2.44536502      -0.28683849
C        8.83011855       1.18598024       5.78111444      -8.74513082       6.21010019      -1.35769272
C        3.75778839       3.75981976       6.57600379       0.68195574      -0.39921095      -0.26956798
C        0.49818352       4.11884607       7.82522726       2.73806551       5.02344555      -3.83007006
C        6.89691363       3.75552848       1.40819033       1.59176998      -0.63628687       0.30644481
C        6.88078619       3.64930129       6.46834619      -0.06655971       0.15464368      -0.40745836
C        2.20412288       5.19221964       0.23044206     -11.11458909      -5.57143242      39.90833779
C        5.91914520       2.19637548       0.06949405      28.63456013      52.52780367      41.89563915
C        7.31577530       3.13555870       7.84866665      -0.20560317       0.83137578      -0.39584749
C        1.89018590       6.02023587       9.67366871     -17.48899879      18.53391830     -26.00511674
C        0.06821365       5.82071894       5.36451357      -0.66564819       3.69677443      -0.85639064
C        3.76273859       5.80785242       3.77379629       1.05666786       1.63255126       0.46417851
C        4.52607394       2.79996963       4.38257466       0.48500641       0.34646253       1.15884525
C        6.08781602       8.19789260       0.71933580      11.51433097       4.32956144      21.13904859
C        9.32676000       7.89156007       3.87184305       0.07427619      -2.13613837       3.09910965
C        7.02392322       7.82757513       4.75260292      -0.64689899       1.58827906      -0.79230854
C        4.86605627       8.73855692       5.70644223       0.92124987      -3.36715505       0.85319756
C        0.77613245       1.13819377       9.59408303      26.63720233       6.67919239     -21.64874928
C        3.51404253       7.05958227       4.45257762       0.32453195      -1.42506209       0.07779543
C        3.44776258       8.22944612       1.33033931      -2.40203992       2.54218517       1.34102977
C        5.61388449       6.07235758       7.43622397       0.72427770      -0.06363050      -1.85575695
C        4.52930914       2.80594574       0.45561059       3.40807145       2.90280289       3.06250032
C        1.18971577       7.77389707       3.56002116       5.34883109      -1.82046152       1.40358204
C        3.31018542       2.56844935       8.68087229       0.76264378       1.22137011      -6.00708633
C        6.26016505       5.05936743       6.35313341       0.48916001      -0.41121812       1.18734597
C        9.06000534       3.73159201       3.39543036       0.96746896       1.90995526      -0.76148653
C        2.76708842       4.81697940       9.46206202      21.41976672     -23.74113371     -29.60863281
C        5.28314649       9.28732403       9.39162863      -2.04685555       3.21366682      -5.07949054
C        0.48103287       0.95322050       1.46945643       0.41271282      -0.18481086      -4.38840270
C        1.77248717       1.67413785       2.11081932      -3.68520126      -2.82882555      -1.11742078
C        6.47092592       0.02036769       6.45778096      -1.33230599       5.84075885      -7.95265394
C        3.86648056       2.60832317       7.39844995      -0.96841248       1.07086179       0.98770624
C        0.63707939       9.41040947       1.92357655      -0.25433690       6.11828942      -3.08912699
C        5.14844501       5.13211276       5.35453344       1.03814671       0.16647548      -0.39692773
C        7.27457031       1.73333540       7.66784766      -1.63337828      -4.06685723       0.30585500
C        7.73199346       0.53104940       8.31421863       0.39624836       3.72819421       1.91179669
C        8.73066429       3.66994172       8.05641689      -3.62741196       0.20267010      -0.11091546
C        2.24455310       8.94508554       6.36113006      -1.86988546      -1.67277837       4.32950788
C        0.33350188       2.80930027       5.55355257       4.03826761       2.59673238      -8.34368137
C        6.07312279       5.75868694       9.75703596      -1.86754274      -1.24887166      -7.36008874
C        7.60391297       5.69659694       6.14669004       0.82854326      -0.50344480      -1.15378961
C        2.69768173       9.19854424       5.04584947      -7.87710885     -18.61775148       3.19488349
C        2.82792066       4.95004292       3.26017692      -0.07878926      -1.26695518      -1.29045630
C        0.52145004       8.91393134       3.22609439      10.99614142      -3.53242998      -7.33351228
C        9.06375489       7.33815499       2.59660305      -6.53543925      -2.50097814      -0.24086862
C        4.37833580       7.35419366       5.52957662      -2.36042722      -1.44510783      -1.81350974
C        8.13126382       4.29798267       5.81173252       0.84394095       0.37079213      -0.08827881
C        9.31695007       3.86767112       6.60070431      -1.86314193       0.83788595       0.49970833
C        9.98616849       3.37763125       0.12802818      -3.11978033       1.52682476      12.55227522
C        4.13965203       1.53872847       2.36021901      -0.98458709      -2.35207187      -0.71788182
C        6.06328252       0.72314783       3.86855913      -0.66909979       4.07959241      -1.29314826
C        7.77282625       9.45727203       1.59960959      -9.28485393     -43.85622286      19.01121129
C        1.00978335       8.31636188       6.88334459       0.37413282       1.45152368       0.66850889
C        7.92817934       9.21496224       7.85049015       3.05117263      -1.53685205      -1.61525613
C        5.61343140       9.38164756       7.88312350      -0.04316949      -0.03987899       2.44898189
C        6.53717016       3.56929394       9.02298035       0.52725289      -6.21536280       0.52257595
C        1.13626146       7.75667735       8.20837910       0.65367625       1.79255906      -2.66892877
C        5.53566263       1.54337324       9.51479748     -28.23271823     -48.61099131     -44.30405254
C        6.62071053       7.11241896       9.43919612      -1.13806905      -3.67438324      -3.50498706
C        8.23835286       9.04097827       9.29819859       1.93038626      -3.85230225      -1.51488707
C        9.11131642       9.95083142       5.44231133     -45.09504488      -3.84888011       7.00703897
C        1.18188098       5.23881752       1.10202674       2.09039786      -3.35778035      -0.59851801
C        2.94371340       6.33027610       0.30432072       8.23592774      10.51548865       8.46326498
C        2.55811559       8.08256129       3.96569197       0.04298276      -0.81649285      -1.55223983
C        4.30011882       6.37301250       0.61461554      -5.10806100      -1.11561244       3.15197000
C        5.05716987       5.56511928       8.66832257      -0.86658523       0.41593337      -2.61979696
C        4.93827299       0.48251875       2.82548193       3.08340027       2.46622259       0.97653093
C        2.03265595       1.30726248       4.75919356      -0.29678364       0.73329549      -3.90103670
C        7.89899182       0.38613658       1.26554362       6.03737712      44.26896106     -12.71906581
159
Lattice="10.0 0.0 0.0 0.0 10.0 0.0 0.0 0.0 10.0" Properties=species:S:1:pos:R:3:forces:R:3 Time=2.0 energy=-198.54273870685626 pbc="T T T"
C        0.19720830       9.88881298       4.17936321      31.07753367       9.84263788      10.15073225
C        9.49981196       2.57047068       3.85056639       6.78742211      -3.89762209       2.98239497
C        3.30706575       1.97098028       0.07596359     -28.12465572      -3.55597909      24.79276763
C        4.14751507       2.92800199       3.00172741      -1.12214385       0.48363131       2.05644814
C        0.16552914       8.84030294       0.79027067      -0.61126291       2.29849926       4.25455570
C        4.49813891       9.15238106       3.30672861      -1.91748858       3.18166027       0.22876837
C        7.32136206       7.36111828       1.02192316      -1.46986870      -1.65902144       0.00856938
C        9.67206700       2.36160014       6.59406979      -6.80768497      -3.15122334       4.43217079
C        3.92969209       9.93757118       9.71423269       0.50257004      -5.27766465      -0.86794179
C        9.43651154       4.45801921       0.98824890      -0.92416858      -0.64850764      -0.68860677
C        3.00623282       0.26113602       4.67830470      -5.59939373      18.67363674      -3.85367421
C        0.72626681       6.41469283       1.63724192       0.83716629      -0.31628700       0.28763514
C        0.92737273       5.48436866       7.42459000       1.71269687      -1.98212176       1.41834032
C        0.17484909       9.83620480       5.47019352      29.39742526      -4.76410210       4.69180502
C        9.24308716       7.03631073       9.42968412      -7.44035849      -5.42555294      -9.19973984
C        1.62298166       5.47921196       3.70600899      -1.52614200       0.52941909       1.46721251
C        5.49499847       7.93039245       9.73019041      -7.54254083       3.18562172     -16.89044479
C        9.76055681       2.67408683       8.19444486      -1.57839205      -5.06267746       0.86459437
C        6.43133310       8.76241338       5.73776897      -0.65139367      -1.82445896       1.05571471
C        7.78322757       8.08095413       2.24701568       3.56507302       0.40130656      -1.42319993
C        2.01862985       3.10559999       1.70079702      -1.10199203      -0.73491339      -0.20651729
C        2.95811647       9.40381804       8.73435986      -0.59200556       1.15607837       0.56975339
C        9.22897475       9.40497268       6.91637028       1.58369332      -3.31042537       0.54384596
C        6.16567081       5.38951940       3.09348324       2.21706958      -0.25294347      -0.12647380
C        2.22453764       3.42220947       9.25786595       1.27975801      17.16843831     -27.66542919
C        9.53087286       1.60634344       9.35843272      -3.86667019       5.95678843     -10.28303535
C        1.11558599       1.63286320       5.74840930       5.48995914       1.29706953      -0.03890390
C        1.23772187       1.38371280       3.49019992       4.08336537       3.34553660       1.07776831
C        0.92002882       6.32021765       8.66783953       1.36687392       1.40345842      -4.94246412
C        4.68160735       7.73261853       0.77242735      -2.47986659      -5.15735644       3.93548128
C        9.26190786       6.99481753       4.95624954      -0.61417224      -5.54984789       1.69605161
C        7.54954604       3.71832854       0.14010216      -2.70313992      -3.30119082       4.70016717
C        8.79479342       1.58378951       1.17811375       0.67988727      -0.38400545       5.37757961
C        7.39918774       1.33177207       6.27193363      -1.98788960      -0.67162528      -1.58575407
C        7.49133234       1.57153935       2.05896873       0.19342104       2.64749736      -0.81333289
C        8.50357869       4.76108289       9.08976226       6.47468804       2.95953414     -21.94898722
C        5.90034243       1.28432784       8.17172648      -0.72764085      -1.34069480      -3.82337043
C        7.17401803       2.85517200       4.23897432      -0.80288938       0.07359301      -1.11568179
C        1.42135255       5.51277762       5.16197392      -0.85751646       0.64817189       0.15822228
C        5.79846707       8.92844365       2.88971403       2.98446741      -1.18121761      -0.18602946
C        6.66467507       2.47066317       5.47768588      -1.24823019      -0.74895980       1.80682728
C        4.40343080       3.84253727       5.36530396      -1.05181634      -0.92111970      -0.69477270
C        6.29452458       5.04874983       1.62207683      -0.93842046      -0.16956710       5.58798756
C        4.81702938       1.56354449       7.22408736      -0.12967804      -0.35044578      -1.60726257
C        2.23331241       2.80573849       0.14339659       1.47499752     -18.16955431      32.27617299
C        7.95218570       4.10472314       4.24807766       0.56448896       1.07752564       1.19421158
C        7.36864423       1.54624099       3.52489593      -0.23855767      -0.19007135      -0.14777603
C        7.57846931       5.53741739       3.71401338      -2.10158962      -0.25667988       0.15280764
C        3.25800374       9.26466749       7.36083002      -2.17523477      -0.35844103       0.37949270
C        7.95797256       6.36317260       7.39831671       1.94039241       0.01638658       0.58769724
C        6.24064440       9.42933959       1.59095179      -2.19133905      -2.09334375      -1.61992741
C        7.55302762       5.92503694       1.31149891       1.54172064       0.41503040       1.00320014
C        5.39596638       1.67327266       4.87715057       1.51787731       1.04018515       0.89644931
C        4.16839139       1.88762079       9.52014483      24.09796509      -2.89915299     -19.61280315
C        8.45048882       0.43378792       9.51409993      -4.18553593       4.32528629      -1.15395493
C        8.80568512       1.26141123       4.18804512      -3.20224098       5.18055901      -3.59482852
C        9.49390076       0.15117796       3.31371291     -16.17550004      14.00794209     -13.32802494
C        4.94083746       2.65817692       1.86248700       1.77765604      -1.68659413      -2.15704672
C        6.73792719       8.58923728       7.35084595      -0.08714642      -3.91019910      -0.56319587
C        4.53765010       6.12226170       6.30882737       0.21872777       0.57483691       1.11229408
C        0.79435942       7.42020345       0.57788327      37.12838860     -10.09750868      18.81997243
C        9.55430585       4.74521942       2.46024540      -4.69488959      -3.21145433       0.04140722
C        0.88260433       3.96564699       1.54256567      -0.83764381      -1.03369497       1.85768544
C        8.45112092       5.88597706       2.56694129       1.45196419       0.68895704      -0.89704744
C        3.08934344       1.11513344       1.35478121      -0.94378536      -1.20759717       3.23165655
C        0.77925139       0.99960513       6.96337163       1.22037716      -2.62308518       1.95373884
C        4.54143373       9.08792297       7.06846848      -0.94370228       0.08057280      -0.40764667
C        5.09317335       0.76530916       5.99653805       2.07262782       3.81690828       2.42152433
C        7.02440688       4.79437441       9.33226125      -4.81815219       4.27892460      -4.10023613
C        4.95048054       5.18079884       0.76450972       4.99891080       0.15835152       1.63471634
C        2.06214786       5.47061371       6.44195914      -1.67183117      -0.16816777       0.69345022
C        3.42605636       5.21007403       7.02223129      -0.38371193      -0.34403135      -1.39701319
C        6.76115373       7.05754571       7.80381089      -0.22977248       0.99780511       2.23989138
C        2.98668014       3.71697462       2.65171329       0.20449236       0.73299152      -0.35805552
C        5.19427281       5.56711568       3.94760677      -1.61105870      -0.56406578       0.32546841
C        9.33827151       9.18347801       4.12861168     -24.21659286     -15.53013700       3.23642261
C        3.75233648       5.24317642       8.44663830       0.04022109      -0.06385928       0.61240541
C        2.22415279       7.67267930       0.28833516       1.13873477       5.46015833       3.02813070
C        0.23835518       0.89635861       0.12883043     -46.90930971     -32.06508704      66.76126560
C        4.11292384       9.63183636       4.68483560       9.60512982      -5.67937345       0.93576135
C        0.73723997       3.45073392       9.09466601       3.37610385       4.23533728      -9.65919807
C        7.76794157       6.55459231       4.92639173       0.35063724      -0.12785184       1.15428870
C        6.81912261       8.20098207       3.40472477       1.59273703      -1.05840387       1.83788000
C        9.59124575       9.24646509       9.66271802      -0.77135998       1.79897035      -4.14911067
C        8.23973225       5.07848201       0.20841297       1.50183228       1.88380110      20.11079950
C        9.05220177       6.01659796       8.42808645      -2.54647020       2.73083680      -0.69751622
C        0.98666072       6.51986032       2.94897849       3.13995233       0.32311483       2.52146179
C        1.84333057       8.63551566       9.09953049       2.37594163      -2.12563845       0.65287138
C        6.39892641       2.41071396       1.49058127      -1.14073588       1.19440674       0.92102708
C        9.83751562       7.67756874       0.28195448     -30.20510479       6.95850006      -8.16822810
C        3.38755940       8.65171589       2.65749066      -3.35346874      -2.29073595      -0.17594673
C        8.81376560       1.19653777       5.78376434      -8.20454339       6.07469202      -1.55445181
C        3.76306713       3.75551058       6.57573919       0.66347007      -0.28819156      -0.31858328
C        0.50159213       4.12935036       7.81855797       2.20844543       5.07267755      -4.11680570
C        6.89233433       3.74823818       1.40680286       1.33885622      -0.29688965       0.32324220
C        6.88883809       3.65237876       6.46753039      -0.33301711       0.13981837      -0.39349951
C        2.19837827       5.19205634       0.27134567      -4.39144407      -4.15968055      29.94681028
C        5.94590592       2.24383436       0.10645773      13.39923442      23.71972810      15.62805682
C        7.30853817       3.12726074       7.84683568       0.26322222       1.04544477      -0.41756992
C        1.87378613       6.04574236       9.65509164     -13.92999995      13.67761033     -23.61530722
C        0.07044702       5.82383879       5.35436877      -0.95056010       3.78183521      -0.77140649
C        3.75857792       5.80879301       3.78086838       1.22702549       1.56555409       0.17666817
C        4.52041056       2.79499879       4.37967203       0.68318424       0.50946259       1.47007868
C        6.09848355       8.20203710       0.72842762       9.51468185       3.27743653      18.93634504
C        9.33226432       7.89321390       3.86788600       0.56827879      -3.93967130       3.05967758
C        7.02313194       7.83364185       4.75267334      -0.48130203       1.27840380      -0.69466443
C        4.85751118       8.73558429       5.71218033       1.19437990      -3.29835929       0.66729393
C        0.84037429       1.17302001       9.52407239      59.88465079      28.32692726     -62.63921710
C        3.52041803       7.06569464       4.44562181       0.20290652      -1.71758563       0.09843920
C        3.44552356       8.22773618       1.33739265      -2.16033412       2.45384287       1.18555822
C        5.60721618       6.07593837       7.43224272       0.89652438      -0.13912240      -1.80966006
C        4.52725668       2.81504643       0.46191720       3.22052315       4.54766063       3.47103982
C        1.18858205       7.77999157       3.56364135       5.56322060      -2.49400122       1.31091417
C        3.30958714       2.57282099       8.67327488       1.29706185       1.72003177      -9.35488618
C        6.26064303       5.06228199       6.34949662       0.33734684      -0.41711276       1.15108642
C        9.06256656       3.72464780       3.39057309       0.40558775       2.20930460      -0.48788454
C        2.78600292       4.79030445       9.43366038      13.55091434     -17.37771083     -20.80596593
C        5.27366941       9.29686982       9.38576278      -1.93516536       2.56369104      -5.31448170
C        0.47815252       0.95349808       1.46676589       0.50070968      -1.41464109       3.79249969
C        1.76720719       1.68029564       2.11338766      -2.92955777      -2.88760220      -0.60465552
C        6.46388050       0.01659450       6.44951320      -1.18891980       5.97227478      -7.65671192
C        3.86631661       2.60487177       7.39857906      -0.56269724       1.02784705      -0.07786749
C        0.62894496       9.41049351       1.91671808      -0.55840691       5.81175543      -1.62305267