159
Time=1.00000000 pbc="T T T" Lattice="10.00000000 0.00000000 0.00000000 0.00000000 10.00000000 0.00000000 0.00000000 0.00000000 10.00000000" energy=69.04326057 virial="-600.98033875 61.57547710 -72.39103383 61.57547710 -651.43391878 -56.07831397 -72.39103383 -56.07831397 -732.85908764" stress="-0.58031755 0.06157548 -0.07239103 0.06157548 -0.63949361 -0.05607831 -0.07239103 -0.05607831 -0.71093274" Properties=species:S:1:pos:R:3:vel:R:3:forces:R:3
C 0.16940061 9.88764983 4.15418782 0.02279197 0.00306660 0.01228293 20.05798185 5.44441867 10.14583039
C 9.51000945 2.57378213 3.83850696 0.00208647 0.00945861 -0.00575757 -3.71707416 3.70090449 -1.50508487
C 3.35703880 1.98363015 0.05065367 -0.03004955 0.00961789 0.01570351 -30.02174413 6.01947844 21.35630655
C 4.15566846 2.93490096 2.99829470 -0.00010669 -0.00092327 0.00092659 -1.60625070 -0.40887737 -0.99117661
C 0.15117419 8.85089695 0.80025645 -0.00361603 0.00184414 0.00652381 -2.52011311 2.13415116 0.13037030
C 4.50096529 9.13861650 3.30937509 0.00674070 0.00336215 -0.00075769 -0.13590944 1.70706844 -4.91162661
C 7.32242465 7.35220321 1.02454427 -0.00484384 -0.00003215 -0.00383270 0.50169039 -2.02999121 4.88736719
C 9.68454048 2.35640991 6.58720712 -0.00498106 -0.00567728 0.00113949 -0.65115476 0.50495249 -5.12288713
C 3.91759057 9.92758348 9.72379157 -0.00645355 -0.00817796 -0.01142403 -0.20945120 -7.79636741 -6.33779949
C 9.43238942 4.46096386 0.97282257 -0.00419458 0.00509287 -0.00300572 1.88220453 -3.53786078 1.53790951
C 3.00983234 0.23917393 4.67005696 -0.00075464 0.00447555 0.00318305 -1.26223683 -1.33791590 2.52976394
C 0.72936980 6.40405014 1.63714050 0.00183167 -0.00321361 0.00178940 5.81065631 -6.45768523 2.73594117
C 0.91028393 5.49364912 7.41868376 0.00191316 0.00619261 -0.00169329 2.99818277 -1.53492868 3.16926083
C 0.11507115 9.83428180 5.46246424 0.01733951 -0.00147793 0.00408858 14.86943012 -1.79191849 0.63323370
C 9.24239274 7.03977421 9.41689240 -0.00377264 0.00425044 -0.00452897 -1.80598915 -2.25011420 -1.69640112
C 1.60562145 5.48865885 3.70085252 0.00044316 0.00635984 0.00631768 3.34045494 2.01911926 0.28673089
C 5.49192686 7.92805053 9.73988535 -0.00814113 0.00968249 0.00031907 -0.46805763 3.29128656 0.23334646
C 9.74650268 2.66080439 8.20465173 -0.00899610 -0.00248201 0.00271737 -2.18790799 3.32024956 -0.28472978
C 6.43488268 8.76090297 5.74243799 0.00501476 -0.00180903 -0.00598073 -1.51353543 1.04069802 1.39741409
C 7.76265965 8.06688784 2.23157059 -0.00776417 -0.00116186 -0.00749291 -0.33317369 -0.27310848 -0.65604001
C 2.00930867 3.11745542 1.70503840 -0.00465575 0.00761026 0.00824753 -1.03176987 0.21121660 3.06018841
C 2.96109842 9.39468082 8.73689183 0.00453361 -0.00720481 -0.00217913 -0.78380147 -3.97264934 -2.94022846
C 9.23724754 9.40790353 6.93389077 -0.00366095 0.00379296 0.00131434 -1.63943994 -0.22549051 0.83048761
C 6.16121043 5.38878128 3.07391268 0.00055652 0.00096703 -0.00293693 -2.97250310 0.76122311 5.65259981
C 2.22258450 3.39888879 9.32590670 -0.00157883 0.02456504 -0.01857859 0.06639667 19.53486395 -26.77752209
C 9.53792235 1.61097836 9.35913182 0.00809204 -0.00757256 0.00508834 4.80435959 -3.18910810 -0.90495661
C 1.11546800 1.62537583 5.75343712 0.00310744 -0.00423498 0.00300918 1.26837683 -2.09337831 1.05078864
C 1.23775093 1.38219136 3.50416752 -0.00115945 0.00010633 0.00578870 5.05315638 1.55600309 0.74983919
C 0.92430387 6.33009137 8.66329863 0.00904308 -0.00074243 -0.00863532 5.28117108 2.82879305 -4.19253540
C 4.68849615 7.72689134 0.77099265 0.00516540 -0.00753262 0.00307928 -2.09323096 -6.08475924 0.34763312
C 9.27162274 7.00119097 4.94453896 0.00678038 0.00007800 -0.00076053 -0.67808008 -1.55101705 -4.50508600
C 7.57358213 3.73408817 0.13989460 0.00250787 0.00007391 0.00635899 -4.94023073 1.40852928 -0.56668843
C 8.79187133 1.59864746 1.18460399 -0.00625062 0.00324097 0.00643056 -6.55278778 -2.23201585 4.14927354
C 7.40213211 1.31640374 6.26096337 0.00603487 0.00071396 -0.00368050 -0.54085562 1.56907302 1.11073333
C 7.49891154 1.57813884 2.04350533 0.00767401 0.00791751 -0.00590050 -0.01875681 1.46560770 -0.28839588
C 8.48879154 4.74393575 9.09857629 0.00565576 0.00430185 -0.00382370 0.06028104 2.92813247 -3.61004591
C 5.89542896 1.28493592 8.17689816 -0.00213641 -0.00271831 0.00309662 -4.32057476 1.40859175 -1.54744720
C 7.18008646 2.85585686 4.21921862 -0.00246367 -0.00389250 -0.00091045 0.74659151 -3.55866635 4.40909994
C 1.41992553 5.49420269 5.14857857 -0.00889409 -0.00099801 0.00076406 -4.67969882 3.60832381 0.66099042
C 5.80235237 8.92680407 2.88978345 0.00299401 -0.00936132 0.00642515 4.95858523 -4.74386901 0.02912045
C 6.64850450 2.45070066 5.48687989 -0.00428867 -0.00598705 -0.00281246 2.85528475 0.30445153 -3.34207368
C 4.39996629 3.83587125 5.37797238 0.00286626 0.00576881 0.00958340 -1.69307397 -2.32151300 3.76199663
C 6.29979720 5.04557413 1.61952827 0.00580934 -0.00340008 0.00711634 3.04278055 -1.52920130 4.00361514
C 4.80991420 1.56858123 7.22179831 -0.00144765 -0.00268379 -0.00473262 1.24023223 1.05809409 -0.22640023
C 2.23482563 2.84072038 0.05934566 0.00486264 -0.02371634 0.02116253 3.72711742 -21.52779555 29.97974110
C 7.96385768 4.09421753 4.24175932 0.00531388 -0.00824565 0.00319922 1.75824451 -2.42295045 -2.14139891
C 7.37518525 1.55302334 3.52957107 -0.00475907 0.00607039 -0.00742015 0.76103795 2.90559703 -0.52586417
C 7.58243466 5.52661218 3.71142218 0.00717164 -0.00729866 -0.00187852 -0.30628923 0.32157159 -2.88980925
C 3.24951208 9.27527892 7.36560960 -0.00292553 -0.00700185 0.00509399 3.31726670 -3.01445431 0.90721326
C 7.96000975 6.37240642 7.42283534 -0.00062432 0.00279272 0.00801988 -5.03935921 0.58831656 0.31007245
C 6.25095967 9.45343725 1.57350989 0.00052617 -0.00081787 -0.00472626 -2.49840283 -6.03784394 2.34989691
C 7.54195931 5.91516113 1.29219502 -0.00548657 0.00164839 -0.00567831 -0.13914411 1.78575942 1.26146317
C 5.37244007 1.67801052 4.87795005 -0.00618017 -0.00530678 -0.00066316 1.04507393 -0.31692927 0.31567031
C 4.12084423 1.88660942 9.55610924 0.03131843 -0.00094013 -0.01507264 28.26862526 -1.61718965 -19.87255466
C 8.43298556 0.43457506 9.53280075 -0.01106155 -0.00814149 0.00468314 -3.55307990 -2.77488947 -4.37594843
C 8.79168274 1.26307973 4.17362824 -0.00734997 0.01387181 -0.00614758 -3.24338390 9.59054136 -0.28836183
C 9.51975115 0.11971732 3.35939368 -0.00034874 -0.00131310 -0.00201685 -10.28220540 7.41577452 -9.93524671
C 4.91848376 2.66545723 1.85835491 -0.00882854 -0.01164161 0.00903344 -3.04318672 -4.25450602 3.15825510
C 6.73528419 8.57767975 7.33338572 0.00101624 -0.00364639 -0.00441329 -0.14427263 2.25034404 1.27222840
C 4.54506387 6.13449802 6.32623306 -0.00116194 0.00679260 0.00342762 0.93162119 0.53423667 -1.90572762
C 0.72813276 7.43614165 0.56196356 0.03662907 -0.01073091 0.01534693 41.77059674 -12.57938027 17.03549719
C 9.57105126 4.76077534 2.44044308 -0.00456686 0.00027926 -0.00640028 -5.17391443 -3.12727398 -0.38181376
C 0.89685722 3.97955373 1.55288420 0.00489414 0.00783933 -0.00607155 5.08129382 4.79416680 -2.50402075
C 8.45988357 5.88124082 2.56146999 0.00612365 0.00121070 0.00739989 -2.66378051 0.12417481 1.39398056
C 3.10604439 1.11248779 1.35934726 0.00463411 0.00434735 -0.00438805 0.22338516 3.06123281 4.64253950
C 0.78426511 1.00499146 6.97485160 0.00517146 0.00807823 -0.00066370 1.79099473 3.62443280 -8.25414801
C 4.55731652 9.09894627 7.06501058 0.00243946 0.00737067 0.00824159 -4.00112152 2.67493445 0.79920828
C 5.09160346 0.77472066 6.01716535 0.00542492 0.01224213 0.00931516 1.92071068 7.38314792 2.31493386
C 7.03403308 4.78009784 9.32271475 0.00150692 -0.00330980 -0.00430925 -0.71245909 -3.70378534 1.40916944
C 4.95594990 5.16783014 0.77335355 0.00686997 0.01196725 -0.00812337 1.14542508 7.26274766 -1.26707408
C 2.06603970 5.47598547 6.43980468 0.00040688 -0.00521725 0.00165121 -2.12326299 -1.07734729 0.38971210
C 3.41528541 5.21901773 7.00789564 -0.00541992 0.00138969 -0.00264672 -0.98425880 -1.91218913 0.89041880
C 6.75240162 7.05796510 7.81222088 -0.00122217 -0.00814890 -0.00828397 2.43046319 -4.46652544 -1.60548744
C 2.97917032 3.70073272 2.64817502 0.00302393 -0.00297786 0.00320385 0.63141969 2.11482352 1.61540008
C 5.18839625 5.56276716 3.95333805 0.00109362 0.00541836 -0.00693920 0.93952745 -2.58630466 -3.85220829
C 9.36236399 9.22333579 4.10668255 -0.01008526 -0.00937619 -0.00627440 -12.62095213 -14.94317877 -0.49035454
C 3.75924911 5.24072522 8.46949287 0.00368753 0.00171637 0.00699294 5.84687138 0.62529588 0.49810815
C 2.23713770 7.67833183 0.30129815 -0.00089672 -0.00485727 0.00508424 -0.93219841 -2.71154654 0.06246400
C 0.28284575 0.90858524 0.08546169 -0.06326977 -0.03456740 0.06471897 -80.47111654 -36.99116898 92.16443205
C 4.09297901 9.62781023 4.69647943 -0.00009038 0.00498821 -0.00428118 -2.13963580 -0.20421600 0.47152354
C 0.72257320 3.44673978 9.11070337 -0.00126615 0.00254140 -0.00041478 -4.31305042 3.71371382 1.02536726
C 7.76102779 6.56781027 4.91907176 -0.00294200 0.00419653 -0.00490216 0.27440119 1.21063685 0.16451614
C 6.82124845 8.18211751 3.38976546 0.00052743 -0.00509335 -0.00074644 -2.14370689 3.28427303 0.84175754
C 9.59412094 9.24105602 9.66262604 0.00118724 0.00281200 0.00475149 -1.82669783 0.01488324 2.65267467
C 8.24472840 5.07873767 0.18794182 -0.00235257 -0.00643939 0.00375640 -0.57505739 -1.43671584 2.24469244
C 9.05607813 6.03046325 8.41220217 -0.00115057 0.00659823 -0.00029605 -3.45745850 3.97103018 2.76799887
C 0.99157438 6.52365908 2.95573197 0.00646500 -0.00361289 0.00573726 2.87216216 1.71300572 -0.23579080
C 1.84571176 8.64607785 9.09254320 0.00591009 -0.00002337 -0.00732041 4.32793325 -2.81640422 -3.44479814
C 6.39439086 2.40352549 1.49734562 0.00213109 -0.00318164 -0.00500681 1.46950758 4.48862153 -1.40028067
C 9.90489188 7.67199778 0.30846367 -0.02794313 0.01028055 -0.01998786 -37.10910892 7.45112813 -15.71385622
C 3.37357171 8.65982404 2.65608391 -0.00234312 -0.00388321 -0.00097750 4.56904048 -1.86042485 -2.39363736
C 8.83960577 1.18135708 5.77190172 -0.00340476 0.00343983 -0.00603434 -6.00150955 1.20189452 -3.45086831
C 3.76117827 3.75822934 6.57018826 0.00845120 -0.00568599 -0.00609199 5.31036460 -2.42827353 -3.68538761
C 0.49204738 4.11999079 7.82229384 -0.00383875 0.00964586 -0.00814570 1.97399449 2.67661127 0.84766781
C 6.90494447 3.75961985 1.40294276 0.00277460 -0.00296476 -0.00672206 -3.68443918 -0.01147592 -2.05354404
C 6.87360488 3.65445015 6.47507248 0.00095465 0.00820331 0.00607524 2.83768031 1.30251426 -0.86452186
C 2.20471612 5.18796040 0.21669331 -0.00136357 -0.00204513 0.01211188 -7.66752470 -5.49112380 22.29924524
C 5.91930866 2.18595621 0.07427063 0.01602952 0.01676574 0.02597942 12.60006166 18.69653034 22.87117815
C 7.33040815 3.14878718 7.85501073 0.00736297 0.00458713 0.00464989 0.65931156 -2.31554645 -1.54571390
C 1.89107686 6.02019790 9.67271874 -0.00853821 0.01822890 -0.00912049 -3.37371469 16.13578373 -10.75363299
C 0.06543427 5.82719877 5.37788774 -0.00034702 0.00812223 0.00348446 3.73110580 2.27424049 -2.82154882
C 3.77341851 5.80744984 3.76898006 0.00595164 -0.00019418 0.00215465 -0.39055678 0.16426742 1.67952594
C 4.52795141 2.80299559 4.39315461 -0.00392742 -0.00220844 0.00726180 1.94487622 1.98173666 2.05947036
C 6.08203200 8.19450984 0.72952738 0.00013793 -0.00092050 0.01067503 -0.48317671 -0.27470064 6.16861653
C 9.31862037 7.88083160 3.87278420 -0.00258537 -0.00826169 -0.00423032 -3.25090151 -5.73452044 0.68586724
C 7.02735615 7.82637213 4.74243358 0.00302556 0.00397655 -0.00981342 0.04832697 0.53382667 -4.99682260
C 4.87501409 8.73647714 5.70976567 0.00003919 -0.00359987 0.00872692 -1.85456544 -4.00099412 4.28541076
C 0.78843202 1.13334215 9.57984321 0.06206794 0.02528802 -0.07226552 77.89526749 42.11556101 -90.17404413
C 3.50968728 7.04603524 4.45396912 0.00198324 -0.00675828 -0.00559292 2.45473516 -0.50669134 0.91612357
C 3.45057212 8.23058495 1.33367838 0.00140138 -0.00160173 0.00990282 3.88211107 1.82573068 4.36804056
C 5.62632529 6.06930433 7.44692880 0.00541489 0.00064721 0.00743338 -1.02177829 -1.26257774 2.57579923
C 4.53910295 2.79861791 0.44869399 0.00631715 0.00065766 -0.00192993 0.65775919 1.09486055 1.35958421
C 1.19408085 7.76854079 3.55610430 0.00096593 0.00141256 -0.00081639 3.00029004 -1.11597729 -2.31715143
C 3.30877772 2.55864340 8.67494309 -0.00225070 -0.00594720 -0.01102703 2.91688555 -0.00148958 -4.58135259
C 6.25476227 5.05875919 6.35385521 -0.00506001 0.00247353 -0.00341785 2.01098043 0.43405086 -1.32716817
C 9.05438936 3.73320940 3.39736443 -0.00345525 -0.00618947 -0.00251528 -0.16087738 -4.13009620 4.90542400
C 2.76477992 4.83207662 9.46402230 0.00878188 -0.00247832 -0.01551703 12.77707219 -11.26577616 -19.69190884
C 5.28497708 9.28213238 9.39554663 -0.00679870 0.00300178 0.00012734 -2.95226625 0.82009411 -4.85314488
C 0.48569946 0.94441429 1.47577313 0.00153340 -0.00851963 0.00553019 1.13515949 -3.82150412 1.88486677
C 1.77795690 1.66806139 2.10187702 0.00167085 0.00123210 -0.00602460 -0.88646185 1.44579422 -0.67623863
C 6.47755450 0.02468123 6.46347622 0.00015560 -0.00172668 0.00066266 -0.64460307 -0.37845206 -5.63560474
C 3.86679627 2.60790275 7.39658677 0.00058910 -0.00439971 -0.00214512 3.31836283 -0.03102797 1.48910819
C 0.64551718 9.41447165 1.93324091 0.00026604 0.00173823 0.00396683 -4.93493330 -0.48155572 -3.86919343
C 5.15334184 5.13554173 5.35537409 -0.00276372 0.00594652 -0.00587466 -0.03874093 -0.43623739 0.42636704
C 7.27331096 1.73142327 7.66803419 -0.00263861 -0.01076899 0.00403938 -0.94500673 -3.19245166 -0.60951063
C 7.73187554 0.52259245 8.30134866 0.00683290 -0.00494220 -0.00537945 3.40430784 -1.64233464 1.02548328
C 8.73063990 3.67918364 8.05726000 0.00464578 0.00156123 -0.00652445 -1.05593371 -2.24674961 0.73583794
C 2.24404667 8.95799389 6.35826762 0.00096702 0.00765659 0.00594324 2.54037684 -0.06797937 4.02241278
C 0.33382520 2.80864888 5.56037791 -0.00509342 -0.00513582 0.00791924 -0.37499133 -5.51394755 3.66316730
C 6.06383358 5.74838172 9.75546442 -0.00855210 -0.00592051 -0.00698323 -1.63243425 1.18950760 -6.11883411
C 7.60163722 5.69324806 6.15139461 -0.00386920 0.00214506 0.00487458 -0.58860582 -0.23155415 -0.32372332
C 2.68650688 9.19897849 5.03443722 -0.00611473 -0.00930858 -0.00629976 0.02088583 -1.98446700 1.65074545
C 2.82929772 4.95681357 3.27082348 0.00000292 0.00518762 0.00394853 0.66027364 1.03087270 1.78027438
C 0.51489578 8.90925552 3.22417444 0.00553746 -0.01039212 -0.00566602 7.81438661 -4.94864041 -7.66942823
C 9.05832114 7.33340701 2.59482986 -0.00226081 0.00144583 0.00540868 -4.66061783 1.31661786 4.42873636
C 4.37206666 7.34804411 5.53582748 -0.00565104 -0.00569897 0.00248687 -3.97779846 -2.89573753 -4.18423343
C 8.12803248 4.29188983 5.81335275 -0.00202448 -0.00535444 0.00358977 -1.90950775 0.28814489 2.10882336
C 9.31407784 3.87609667 6.59892933 -0.00178689 0.00123670 0.00266528 -2.40189511 -0.52276349 1.06048107
C 9.98146866 3.38941987 0.12483619 -0.00162756 0.00905500 -0.00673578 2.62360066 4.64362168 -0.22152144
C 4.13844147 1.54131175 2.34907630 -0.00463051 0.00644844 -0.00766279 2.01173592 -0.13272572 -2.36295289
C 6.05843463 0.72355939 3.87138803 -0.00252100 -0.00068070 0.00434898 -3.00167358 4.96424508 -1.01842213
C 7.77381197 9.46801387 1.59750009 -0.00775090 -0.01953706 0.01244056 -5.65875971 -17.97800446 6.54910493
C 1.01465949 8.32081278 6.89112877 0.00226293 0.00444931 0.00546711 6.28263909 -0.50657696 4.55202810
C 7.92427955 9.21505983 7.85417655 -0.00945335 0.00050763 0.00517319 -1.79978767 5.92003918 0.56428099
C 5.60715371 9.39005317 7.88011669 -0.00165264 0.00211400 -0.00478687 -4.14871287 -3.78226870 -1.97573826
C 6.52858757 3.55828021 9.03100643 -0.00053750 -0.00339547 0.00206856 5.73861456 2.15189493 0.32896614
C 1.13345034 7.75813325 8.21152833 -0.00389200 0.00532281 0.00290890 3.72871709 3.53428078 -1.11894387
C 5.53808721 1.55196958 9.51800150 -0.00875657 -0.02259302 -0.02604615 -11.66123888 -16.93646812 -26.03649235
C 6.61476710 7.10504492 9.43121527 -0.00630915 -0.00387196 -0.00492577 -3.37665999 -3.10438085 -0.64991212
C 8.23234670 9.04937411 9.29275986 0.00147842 0.00260943 -0.00480880 4.80942547 2.92619610 0.75026751
C 9.11889874 9.93940671 5.43720443 -0.01109862 -0.00535875 0.00357785 -13.46272540 3.12343597 6.50666952
C 1.18238426 5.24303008 1.10137227 -0.00355231 -0.00445932 0.00737937 -2.48117280 -1.54211992 5.27096927
C 2.94381907 6.33797990 0.30623681 -0.00230953 0.01050279 0.00006831 0.94957030 10.06561112 -0.34482348
C 2.56581821 8.08669966 3.96944123 0.00707117 -0.00022489 0.00468751 0.23145288 -3.69610190 0.33928767
C 4.31032696 6.37279806 0.61110881 0.00155912 -0.00454197 0.00226124 -2.68352258 -1.61837411 0.29983133
C 5.04624642 5.57131323 8.66875097 -0.01223817 0.00110302 0.00015199 -4.61738968 0.99537057 -6.39601684
C 4.93527778 0.48676181 2.82853728 0.00241465 0.00598485 0.00304558 0.36567002 4.58363965 3.90460515
C 2.03147901 1.30800718 4.76162336 -0.00542218 -0.00340831 0.00191804 -4.75829649 -1.20872170 -1.08382589
C 7.91025091 0.37545653 1.26384038 0.01059736 0.02017815 -0.00865049 6.14074206 18.57724667 -2.86532331
159
Time=2.00000000 pbc="T T T" Lattice="10.00000000 0.00000000 0.00000000 0.00000000 10.00000000 0.00000000 0.00000000 0.00000000 10.00000000" energy=36.44125366 virial="-688.41961392 43.30461468 -34.65434449 43.30461468 -701.95069944 -31.44495761 -34.65434449 -31.44495761 -812.92142558" stress="-0.64137894 0.04330461 -0.03465434 0.04330461 -0.67717422 -0.03144496 -0.03465434 -0.03144496 -0.76127205" Properties=species:S:1:pos:R:3:vel:R:3:forces:R:3
C 0.20024894 9.89290320 4.17054586 0.03625057 0.00624495 0.01895275 13.45000136 2.46873188 6.46007168
C 9.51060295 2.58472722 3.83214487 -0.00101320 0.01241030 -0.00701608 -4.00020087 3.64794064 -1.62824112
C 3.31493091 1.99566579 0.07493502 -0.04730305 0.01332855 0.02865885 -12.93441135 3.21896791 10.89869261
C 4.15491662 2.93381346 2.99882318 -0.00145514 -0.00118741 0.00006799 -1.75099227 -0.24876571 -1.14647031
C 0.14654595 8.85359829 0.80683263 -0.00569038 0.00335548 0.00664902 -2.64441046 1.62863750 0.18134987
C 4.50765141 9.14266429 3.30664463 0.00673291 0.00474654 -0.00462259 0.11650848 1.73967218 -4.71084917
C 7.31778232 7.35135571 1.02267460 -0.00452761 -0.00173322 0.00007724 0.28563833 -2.20518690 4.84724557
C 9.67929789 2.35093544 6.58628898 -0.00548897 -0.00530361 -0.00293076 -0.61340368 0.42536724 -5.01084447
C 3.91105289 9.91627407 9.70982193 -0.00656107 -0.01426517 -0.01651541 -0.05823207 -7.35899961 -6.33824092
C 9.42895084 4.46463574 0.97043455 -0.00284519 0.00220794 -0.00175384 1.47737288 -3.64477046 1.57890332
C 3.00857071 0.24311210 4.67425610 -0.00179088 0.00314962 0.00523655 -1.31768894 -1.96325946 2.58283752
C 0.73353535 6.39824277 1.64002880 0.00637330 -0.00796873 0.00378047 5.49665636 -5.38115478 2.22124487
C 0.91340132 5.49922523 7.41826342 0.00432127 0.00492192 0.00087259 2.99730504 -1.62873220 3.21904205
C 0.13838301 9.83208414 5.46680717 0.02714507 -0.00254931 0.00439288 9.54353547 -0.87550595 0.12437619
C 9.23789472 7.04312089 9.41168206 -0.00496596 0.00250716 -0.00570584 -1.16502535 -2.09015572 -1.23367172
C 1.60740632 5.49582967 3.70728537 0.00310381 0.00802219 0.00650997 3.28379428 2.11965491 0.19201028
C 5.48359773 7.93905497 9.74029814 -0.00840214 0.01226280 0.00072103 -0.18177950 3.13294490 0.76742601
C 9.73662779 2.65965597 8.20725474 -0.01082526 0.00006543 0.00261535 -2.36616552 3.02214336 0.03073233
C 6.43928953 8.75951194 5.73701853 0.00373869 -0.00095208 -0.00481133 -1.66350929 1.09285522 1.51407051
C 7.75476166 8.06561628 2.22381419 -0.00790441 -0.00124702 -0.00804298 -0.01598293 0.06108236 -0.71348670
C 2.00423851 3.12515052 1.71451506 -0.00551617 0.00782923 0.01062833 -1.11043568 0.33394840 2.86729819
C 2.96531722 9.38588039 8.73353175 0.00391714 -0.01051137 -0.00457156 -0.75101250 -4.25971508 -3.01624000
C 9.23292810 9.41160592 6.93553867 -0.00501137 0.00360386 0.00189951 -1.72271013 -0.24532586 0.62641191
C 6.16057303 5.39005406 3.07324614 -0.00185489 0.00153641 0.00150202 -3.03118609 0.65635523 5.39909387
C 2.22103233 3.43130009 9.29657282 -0.00139512 0.03549924 -0.03364638 0.39100376 7.68806803 -10.73686481
C 9.54794407 1.60212488 9.36385669 0.01121060 -0.01012053 0.00490916 2.95995468 -3.15458167 0.45885410
C 1.11908489 1.62030004 5.75686835 0.00417774 -0.00601163 0.00389046 1.39635265 -2.32996225 1.14334941
C 1.23862111 1.38292266 3.51025739 0.00287239 0.00130007 0.00659641 4.98494029 1.41605505 1.26114392
C 0.93546815 6.33048514 8.65297936 0.01333901 0.00147966 -0.01186112 5.41444314 2.70356458 -3.83875847
C 4.69282079 7.71691475 0.77421155 0.00356672 -0.01230419 0.00329360 -1.88701069 -5.79505670 0.18595862
C 9.27813077 7.00064600 4.94196895 0.00626316 -0.00128255 -0.00434811 -0.60965836 -1.83635497 -4.42694217
C 7.57410574 3.73472782 0.14602597 -0.00143046 0.00111832 0.00604444 -4.86505952 1.19173384 -0.21645061
C 8.78298875 1.60099193 1.19270112 -0.01196610 0.00145744 0.01001423 -7.67708516 -2.20843315 4.77301514
C 7.40794974 1.31774792 6.25772900 0.00559597 0.00199064 -0.00281736 -0.55187249 1.60949755 1.03822827
C 7.50657801 1.58664502 2.03748899 0.00760412 0.00884989 -0.00611361 -0.15523756 0.85573363 -0.24218547
C 8.49447151 4.74941370 9.09330260 0.00569149 0.00674233 -0.00664289 0.02869225 3.14794576 -3.40892111
C 5.89155718 1.28278337 8.17937324 -0.00552563 -0.00151237 0.00208420 -4.11758888 1.59385872 -0.97318840
C 7.17792266 2.85053501 4.22007910 -0.00185390 -0.00680654 0.00264940 0.77155423 -3.69644368 4.45387280
C 1.40915182 5.49465398 5.14960812 -0.01270401 0.00195097 0.00121592 -4.80587411 3.73378420 0.46401125
C 5.80733801 8.91553736 2.89622030 0.00686403 -0.01319560 0.00657104 4.67663401 -4.80235560 0.33411283
C 6.64536267 2.44483589 5.48272508 -0.00193728 -0.00578921 -0.00556615 2.99897182 0.18813068 -3.51379967
C 4.40215252 3.84070761 5.38906681 0.00141038 0.00389340 0.01273924 -1.93164565 -2.34771162 4.09510756
C 6.30682868 5.04155985 1.62825267 0.00831652 -0.00453265 0.01035877 3.19935375 -1.29058710 4.06910491
C 4.80896470 1.56632243 7.21697476 -0.00046996 -0.00191618 -0.00512627 1.19393611 0.85302675 -0.75366160
C 2.24118528 2.80835731 0.09254966 0.00788293 -0.03611151 0.03903414 3.79253033 -9.33254218 14.51533008
C 7.96987776 4.08499869 4.24409844 0.00664998 -0.01019326 0.00144285 1.56824130 -2.42602056 -2.23144460
C 7.37073185 1.56026078 3.52193970 -0.00402116 0.00846710 -0.00771146 1.07615560 3.06150031 -0.19941640
C 7.58948328 5.51944269 3.70838296 0.00696658 -0.00693071 -0.00421179 -0.20426244 0.59450751 -2.91934049
C 3.24791895 9.26706630 7.37106797 -0.00031271 -0.00931807 0.00580526 3.18787253 -2.75226057 0.86364867
C 7.95736135 6.37543544 7.43097977 -0.00474545 0.00325895 0.00824540 -5.22102344 0.57246006 0.25138819
C 6.25048235 9.45019425 1.56972747 -0.00118805 -0.00563539 -0.00286140 -1.76951075 -5.95636654 2.29307047
C 7.53641685 5.91752678 1.28702338 -0.00569252 0.00302432 -0.00471839 -0.37359926 1.63990411 1.12845600
C 5.36667965 1.67257644 4.87741369 -0.00532898 -0.00552699 -0.00039941 1.07415146 -0.23131920 0.34096885
C 4.16351685 1.88501975 9.53305472 0.04680070 -0.00125493 -0.02637100 10.27769637 0.83342981 -8.25705406
C 8.42049690 0.42531902 9.53572627 -0.01379242 -0.01028466 0.00115999 -3.24599612 -2.56098270 -4.39564610
C 8.78303005 1.28080361 4.16736483 -0.00988983 0.02145625 -0.00632966 -3.08012167 9.29250622 -0.16494332
C 9.51527252 0.12138279 3.35338631 -0.00761613 0.00379848 -0.00864771 -7.81145340 5.31056598 -6.57364941
C 4.90843291 2.65210679 1.86865688 -0.01155400 -0.01502088 0.01164876 -3.74239510 -4.15889332 3.35313475
C 6.73624248 8.57493721 7.32948342 0.00090043 -0.00178992 -0.00341402 -0.14406061 2.37172735 1.21564571
C 4.54427611 6.14150520 6.32889523 -0.00049302 0.00730053 0.00177155 0.73379958 0.73035693 -2.21739239
C 0.78153914 7.42035818 0.58415286 0.06107333 -0.01829594 0.02624465 19.08843780 -6.25534099 10.09663963
C 9.56440628 4.75979852 2.43388944 -0.00874722 -0.00215508 -0.00677787 -5.23394406 -2.93350464 -0.55826795
C 0.90379228 3.98931866 1.54580690 0.00906122 0.01166809 -0.00803473 5.29350543 4.73831487 -2.38371807
C 8.46493730 5.88250140 2.56942977 0.00398934 0.00122167 0.00859673 -2.65001553 -0.09685556 1.58581990
C 3.11076822 1.11806470 1.35682391 0.00489664 0.00688594 -0.00085474 0.43023601 3.25910711 4.15434575
C 0.79015593 1.01452545 6.97087259 0.00658208 0.01097269 -0.00730444 1.72101343 3.58192533 -8.27934265
C 4.55814892 9.10739134 7.07357317 -0.00068003 0.00936799 0.00877857 -3.76548719 2.29781067 0.53771007
C 5.09779984 0.78992826 6.02741031 0.00684374 0.01813459 0.01123168 1.61173916 7.28733915 2.45665088
C 7.03525385 4.77530039 9.31897150 0.00091066 -0.00623185 -0.00318215 -0.77206290 -3.57125425 1.39697695
C 4.96327994 5.18271450 0.76472126 0.00772364 0.01781679 -0.00921777 0.97997546 7.30090955 -1.45766455
C 2.06559376 5.47033549 6.44161242 -0.00120947 -0.00605893 0.00208401 -1.90097275 -1.01817977 0.68783799
C 3.40947015 5.21963937 7.00560656 -0.00628340 -0.00006002 -0.00207769 -1.16555303 -1.69715244 0.52629846
C 6.75215566 7.04802220 7.80329206 0.00073365 -0.01181720 -0.00948665 2.43896472 -4.66645110 -1.38882489
C 2.98244786 3.69860429 2.65202771 0.00348672 -0.00129432 0.00448270 0.52078472 2.07670069 1.56855023
C 5.18986723 5.56714673 3.94485159 0.00186164 0.00329390 -0.01002919 0.97262919 -2.70297772 -3.84093919
C 9.34720948 9.20795761 4.10021120 -0.01838996 -0.01948218 -0.00689742 -8.05532384 -10.21777010 -1.06077933
C 3.76528505 5.24269274 8.47668588 0.00824822 0.00219793 0.00768991 5.50792027 0.57364047 1.23714340
C 2.23586656 7.67238545 0.30640749 -0.00191079 -0.00720909 0.00511283 -1.59253383 -3.14378560 0.00871468
C 0.18725446 0.85916021 0.18719884 -0.09571349 -0.04930480 0.10502631 -0.30424408 0.29935002 8.18901455
C 4.09202924 9.63271641 4.69238764 -0.00185775 0.00486524 -0.00388420 -2.26061130 -0.10193658 0.51683851
C 0.71957469 3.45077281 9.11070043 -0.00454641 0.00542603 0.00041429 -3.85381931 3.46815753 1.03879404
C 7.75819601 6.57249305 4.91423568 -0.00274006 0.00517301 -0.00476920 0.22836781 1.22051614 0.16653302
C 6.82091485 8.17834330 3.38935712 -0.00135732 -0.00236975 0.00003456 -2.54876274 3.49670827 1.10271102
C 9.59457448 9.24387400 9.66844299 0.00000024 0.00311897 0.00701997 -1.12859178 0.74937701 2.99517465
C 8.24214486 5.07172122 0.19259981 -0.00274582 -0.00758079 0.00546931 -0.40402871 -1.40503621 2.01994061
C 9.05353886 6.03865645 8.41301789 -0.00399601 0.00994520 0.00205754 -3.62686026 4.36196104 3.09177306
C 0.99919300 6.52073423 2.96137453 0.00876284 -0.00232851 0.00566465 2.84878361 1.48472083 0.05499234
C 1.85336018 8.64492326 9.08383917 0.00930832 -0.00231293 -0.01018672 4.13265216 -2.88392854 -3.69147122
C 6.39711218 2.40214672 1.49177638 0.00329437 0.00028998 -0.00638734 1.42671525 4.15470439 -2.03683305
C 9.86204374 7.68527111 0.28216428 -0.04838397 0.01354991 -0.02992523 -13.78260362 0.68861663 -9.02727032
C 3.37306376 8.65519359 2.65414499 0.00135899 -0.00541644 -0.00311495 4.64813346 -1.95687827 -2.92798182
C 8.83379048 1.18527965 5.76448133 -0.00825214 0.00435569 -0.00877926 -6.06703889 1.07834339 -3.38319534
C 3.77176240 3.75156803 6.56261601 0.01275179 -0.00755423 -0.00917907 5.39683318 -2.22309577 -4.00053465
C 0.48900149 4.13071172 7.81448861 -0.00229906 0.01193294 -0.00764359 1.85939455 3.01753899 0.40243173
C 6.90623920 3.75665047 1.39539589 -0.00012508 -0.00279381 -0.00832926 -3.53491426 0.43710211 -1.94790876
C 6.87569929 3.66317662 6.48080048 0.00330325 0.00930545 0.00537032 3.00966015 1.44149244 -0.89051825
C 2.20027286 5.18370974 0.23776176 -0.00667744 -0.00516520 0.02676654 -5.56245720 -2.27692890 14.18656343
C 5.94039905 2.21023149 0.10943634 0.02299217 0.02640474 0.03909349 4.73489171 5.30173564 9.77901316
C 7.33803593 3.15244426 7.85903978 0.00785448 0.00278256 0.00340712 0.56441709 -2.17729470 -1.54842103
C 1.88118359 6.04490779 9.65927901 -0.01037262 0.02932357 -0.01649071 -1.19343615 11.48669052 -7.59604807
C 0.06658586 5.83623445 5.38023892 0.00267265 0.00997384 0.00115322 3.78697917 2.33574057 -2.98255122
C 3.77921328 5.80732164 3.77180930 0.00556096 0.00003350 0.00347988 -0.58211493 0.40259641 1.61989158
C 4.52480516 2.80158312 4.40124361 -0.00231240 -0.00071460 0.00886549 2.07604378 1.73748958 1.93325227
C 6.08197587 8.19347900 0.74268005 -0.00040741 -0.00121875 0.01540901 -0.87457371 -0.46785140 5.61761355
C 9.31472926 7.87026662 3.86882937 -0.00518099 -0.01275930 -0.00363282 -3.21143177 -5.46321702 0.80170890
C 7.03040113 7.83056309 4.73061317 0.00306119 0.00431019 -0.01385692 0.04036528 0.29683897 -5.07033038
C 4.87430839 8.73127025 5.72021383 -0.00145134 -0.00675511 0.01209413 -1.85642546 -3.85462558 4.09796762
C 0.88178688 1.17554604 9.47135895 0.09342654 0.04390624 -0.11143403 0.17845297 4.23835039 -7.34405077
C 3.51265647 7.03907345 4.44874417 0.00398253 -0.00716873 -0.00481127 2.52292299 -0.51521581 1.02994019
C 3.45353277 8.22971653 1.34533564 0.00446921 -0.00005602 0.01367659 3.75587165 2.02264094 5.02754903
C 5.63132978 6.06944442 7.45539676 0.00459404 -0.00030197 0.00943408 -1.02189168 -1.10061574 2.40535450
C 4.54568429 2.79971532 0.44731014 0.00672139 0.00144431 -0.00091638 0.34869838 0.86367178 1.16384244
C 1.19625186 7.76950511 3.55435721 0.00324879 0.00065789 -0.00279484 2.68337184 -0.76291060 -2.60860711
C 3.30769859 2.55269560 8.66207595 0.00057297 -0.00589741 -0.01513534 4.11324406 0.12546098 -5.64713341
C 6.25050998 5.06140705 6.34990430 -0.00335605 0.00283685 -0.00445479 2.23137712 0.47051057 -1.25450854
C 9.05086949 3.72536106 3.39681943 -0.00352629 -0.00955932 0.00150908 -0.01599109 -4.25985312 5.11405694
C 2.77869375 4.82507336 9.44059595 0.01750723 -0.01053516 -0.02920041 8.94649005 -8.79338944 -14.37569809
C 5.27699259 9.28546355 9.39372469 -0.00923308 0.00360092 -0.00372993 -3.10862684 0.67160964 -4.75032675
C 0.48768880 0.93435974 1.48206038 0.00221631 -0.01162183 0.00654101 0.56508088 -3.90207100 0.63177243
C 1.77927170 1.66987419 2.09558081 0.00101008 0.00245760 -0.00657765 -0.75866777 1.60536361 -0.70070150