2
Lattice="3.155734316 0.599675484 -0.701986499 -0.758236990 2.779860728 -0.162320058 0.086837300 0.648871474 3.603476546" Energy=-6.489383 Virial="-3.59066 0.02951 0.58043 0.02951 -4.10300 -0.13244 0.58043 -0.13244 -3.58745" Properties=species:S:1:pos:R:3:force:R:3
Cu	      0.00000      0.00000      0.00000        -0.000000     -0.000000     -0.000000
Cu	      1.24217      2.01420      1.36959         0.000000      0.000000      0.000000
8
Lattice="3.557413433 0.000000000 0.000000000 -0.000000000 3.557413433 0.000000000 0.000000000 -0.000000000 3.557413433" Energy=-74.519188 Virial="0.00002 -0.00000 0.00000 -0.00000 0.00002 -0.00000 0.00000 -0.00000 0.00002" Properties=species:S:1:pos:R:3:force:R:3
C	     -0.00000     -0.00000     -0.00000        -0.000000      0.000000     -0.000000
C	     -0.00000      1.77871      1.77871        -0.000000     -0.000000     -0.000000
C	      1.77871      1.77871      0.00000        -0.000000      0.000000     -0.000000
C	      1.77871     -0.00000      1.77871        -0.000000      0.000000     -0.000000
C	      2.66806      0.88935      2.66806         0.000000     -0.000000      0.000000
C	      0.88935      0.88935      0.88935         0.000000      0.000000      0.000000
C	      0.88935      2.66806      2.66806         0.000000     -0.000000      0.000000
C	      2.66806      2.66806      0.88935        -0.000000      0.000000      0.000000
