2
Lattice="3.155734316 0.599675484 -0.701986499 -0.758236990 2.779860728 -0.162320058 0.086837300 0.648871474 3.603476546" Energy=-6.489383 Virial="-3.59066 0.02951 0.58043 0.02951 -4.10300 -0.13244 0.58043 -0.13244 -3.58745" Properties=species:S:1:pos:R:3:force:R:3
Cu	      0.00000      0.00000      0.00000        -0.000000     -0.000000     -0.000000
Cu	      1.24217      2.01420      1.36959         0.000000      0.000000      0.000000
276
Lattice="17.199600220 0.000000000 0.000000000 0.000000000 17.199600220 0.000000000 0.000000000 0.000000000 17.199600220" Energy=-1740.680119 Virial="-36.06047 0.00000 0.00000 0.00000 -36.06047 0.00000 0.00000 0.00000 -36.06047" Properties=species:S:1:pos:R:3:force:R:3
C	      6.43781     15.40998     11.73305        -0.005447      0.022154     -0.012568
C	     10.76179      1.78962     11.73305         0.005447     -0.022154     -0.012568
C	     10.76179     15.40998      5.46655         0.005447      0.022154      0.012568
C	      6.43781      1.78962      5.46655        -0.005447     -0.022154      0.012568
C	     11.73305      6.43781     15.40998        -0.012568     -0.005447      0.022154
C	     11.73305     10.76179      1.78962        -0.012568      0.005447     -0.022154
C	      5.46655     10.76179     15.40998         0.012568      0.005447      0.022154
C	      5.46655      6.43781      1.78962         0.012568     -0.005447     -0.022154
C	     15.40998     11.73305      6.43781         0.022154     -0.012568     -0.005447
C	      1.78962     11.73305     10.76179        -0.022154     -0.012568      0.005447
C	     15.40998      5.46655     10.76179         0.022154      0.012568      0.005447
C	      1.78962      5.46655      6.43781        -0.022154      0.012568     -0.005447
C	     15.40998      6.43781     11.73305         0.022154     -0.005447     -0.012568
C	      1.78962     10.76179     11.73305        -0.022154      0.005447     -0.012568
C	     15.40998     10.76179      5.46655         0.022154      0.005447      0.012568
C	      1.78962      6.43781      5.46655        -0.022154     -0.005447      0.012568
C	      6.43781     11.73305     15.40998        -0.005447     -0.012568      0.022154
C	     10.76179     11.73305      1.78962         0.005447     -0.012568     -0.022154
C	     10.76179      5.46655     15.40998         0.005447      0.012568      0.022154
C	      6.43781      5.46655      1.78962        -0.005447      0.012568     -0.022154
C	     11.73305     15.40998      6.43781        -0.012568      0.022154     -0.005447
C	     11.73305      1.78962     10.76179        -0.012568     -0.022154      0.005447
C	      5.46655     15.40998     10.76179         0.012568      0.022154      0.005447
C	      5.46655      1.78962      6.43781         0.012568     -0.022154     -0.005447
C	     15.03761      6.81018      3.13325        -0.005447      0.022154     -0.012568
C	      2.16199     10.38942      3.13325         0.005447     -0.022154     -0.012568
C	      2.16199      6.81018     14.06635         0.005447      0.022154      0.012568
C	     15.03761     10.38942     14.06635        -0.005447     -0.022154      0.012568
C	      3.13325     15.03761      6.81018        -0.012568     -0.005447      0.022154
C	      3.13325      2.16199     10.38942        -0.012568      0.005447     -0.022154
C	     14.06635      2.16199      6.81018         0.012568      0.005447      0.022154
C	     14.06635     15.03761     10.38942         0.012568     -0.005447     -0.022154
C	      6.81018      3.13325     15.03761         0.022154     -0.012568     -0.005447
C	     10.38942      3.13325      2.16199        -0.022154     -0.012568      0.005447
C	      6.81018     14.06635      2.16199         0.022154      0.012568      0.005447
C	     10.38942     14.06635     15.03761        -0.022154      0.012568     -0.005447
C	      6.81018     15.03761      3.13325         0.022154     -0.005447     -0.012568
C	     10.38942      2.16199      3.13325        -0.022154      0.005447     -0.012568
C	      6.81018      2.16199     14.06635         0.022154      0.005447      0.012568
C	     10.38942     15.03761     14.06635        -0.022154     -0.005447      0.012568
C	     15.03761      3.13325      6.81018        -0.005447     -0.012568      0.022154
C	      2.16199      3.13325     10.38942         0.005447     -0.012568     -0.022154
C	      2.16199     14.06635      6.81018         0.005447      0.012568      0.022154
C	     15.03761     14.06635     10.38942        -0.005447      0.012568     -0.022154
C	      3.13325      6.81018     15.03761        -0.012568      0.022154     -0.005447
C	      3.13325     10.38942      2.16199        -0.012568     -0.022154      0.005447
C	     14.06635      6.81018      2.16199         0.012568      0.022154      0.005447
C	     14.06635     10.38942     15.03761         0.012568     -0.022154     -0.005447
C	      6.46206      0.15411     10.73754         0.003502      0.016616     -0.003502
C	     10.73754     17.04549     10.73754        -0.003502     -0.016616     -0.003502
C	     10.73754      0.15411      6.46206        -0.003502      0.016616      0.003502
C	      6.46206     17.04549      6.46206         0.003502     -0.016616      0.003502
C	     10.73754      6.46206      0.15411        -0.003502      0.003502      0.016616
C	     10.73754     10.73754     17.04549        -0.003502     -0.003502     -0.016616
C	      6.46206     10.73754      0.15411         0.003502     -0.003502      0.016616
C	      6.46206      6.46206     17.04549         0.003502      0.003502     -0.016616
C	      0.15411     10.73754      6.46206         0.016616     -0.003502      0.003502
C	     17.04549     10.73754     10.73754        -0.016616     -0.003502     -0.003502
C	      0.15411      6.46206     10.73754         0.016616      0.003502     -0.003502
C	     17.04549      6.46206      6.46206        -0.016616      0.003502      0.003502
C	     15.06186      8.75391      2.13774         0.003502      0.016616     -0.003502
C	      2.13774      8.44569      2.13774        -0.003502     -0.016616     -0.003502
C	      2.13774      8.75391     15.06186        -0.003502      0.016616      0.003502
C	     15.06186      8.44569     15.06186         0.003502     -0.016616      0.003502
C	      2.13774     15.06186      8.75391        -0.003502      0.003502      0.016616
C	      2.13774      2.13774      8.44569        -0.003502     -0.003502     -0.016616
C	     15.06186      2.13774      8.75391         0.003502     -0.003502      0.016616
C	     15.06186     15.06186      8.44569         0.003502      0.003502     -0.016616
C	      8.75391      2.13774     15.06186         0.016616     -0.003502      0.003502
C	      8.44569      2.13774      2.13774        -0.016616     -0.003502     -0.003502
C	      8.75391     15.06186      2.13774         0.016616      0.003502     -0.003502
C	      8.44569     15.06186     15.06186        -0.016616      0.003502      0.003502
C	      6.88259      1.52268     10.31701        -0.014866     -0.031347      0.014866
C	     10.31701     15.67692     10.31701         0.014866      0.031347      0.014866
C	     10.31701      1.52268      6.88259         0.014866     -0.031347     -0.014866
C	      6.88259     15.67692      6.88259        -0.014866      0.031347     -0.014866
C	     10.31701      6.88259      1.52268         0.014866     -0.014866     -0.031347
C	     10.31701     10.31701     15.67692         0.014866      0.014866      0.031347
C	      6.88259     10.31701      1.52268        -0.014866      0.014866     -0.031347
C	      6.88259      6.88259     15.67692        -0.014866     -0.014866      0.031347
C	      1.52268     10.31701      6.88259        -0.031347      0.014866     -0.014866
C	     15.67692     10.31701     10.31701         0.031347      0.014866      0.014866
C	      1.52268      6.88259     10.31701        -0.031347     -0.014866      0.014866
C	     15.67692      6.88259      6.88259         0.031347     -0.014866     -0.014866
C	     15.48239     10.12248      1.71721        -0.014866     -0.031347      0.014866
C	      1.71721      7.07712      1.71721         0.014866      0.031347      0.014866
C	      1.71721     10.12248     15.48239         0.014866     -0.031347     -0.014866
C	     15.48239      7.07712     15.48239        -0.014866      0.031347     -0.014866
C	      1.71721     15.48239     10.12248         0.014866     -0.014866     -0.031347
C	      1.71721      1.71721      7.07712         0.014866      0.014866      0.031347
C	     15.48239      1.71721     10.12248        -0.014866      0.014866     -0.031347
C	     15.48239     15.48239      7.07712        -0.014866     -0.014866      0.031347
C	     10.12248      1.71721     15.48239        -0.031347      0.014866     -0.014866
C	      7.07712      1.71721      1.71721         0.031347      0.014866      0.014866
C	     10.12248     15.48239      1.71721        -0.031347     -0.014866      0.014866
C	      7.07712     15.48239     15.48239         0.031347     -0.014866     -0.014866
N	      7.06250     16.64182     11.72015        -0.001836     -0.005897      0.008899
N	     10.13710      0.55778     11.72015         0.001836      0.005897      0.008899
N	     10.13710     16.64182      5.47945         0.001836     -0.005897     -0.008899
N	      7.06250      0.55778      5.47945        -0.001836      0.005897     -0.008899
N	     11.72015      7.06250     16.64182         0.008899     -0.001836     -0.005897
N	     11.72015     10.13710      0.55778         0.008899      0.001836      0.005897
N	      5.47945     10.13710     16.64182        -0.008899      0.001836     -0.005897
N	      5.47945      7.06250      0.55778        -0.008899     -0.001836      0.005897
N	     16.64182     11.72015      7.06250        -0.005897      0.008899     -0.001836
N	      0.55778     11.72015     10.13710         0.005897      0.008899      0.001836
N	     16.64182      5.47945     10.13710        -0.005897     -0.008899      0.001836
N	      0.55778      5.47945      7.06250         0.005897     -0.008899     -0.001836
N	     16.64182      7.06250     11.72015        -0.005897     -0.001836      0.008899
N	      0.55778     10.13710     11.72015         0.005897      0.001836      0.008899
N	     16.64182     10.13710      5.47945        -0.005897      0.001836     -0.008899
N	      0.55778      7.06250      5.47945         0.005897     -0.001836     -0.008899
N	      7.06250     11.72015     16.64182        -0.001836      0.008899     -0.005897
N	     10.13710     11.72015      0.55778         0.001836      0.008899      0.005897
N	     10.13710      5.47945     16.64182         0.001836     -0.008899     -0.005897
N	      7.06250      5.47945      0.55778        -0.001836     -0.008899      0.005897
N	     11.72015     16.64182      7.06250         0.008899     -0.005897     -0.001836
N	     11.72015      0.55778     10.13710         0.008899      0.005897      0.001836
N	      5.47945     16.64182     10.13710        -0.008899     -0.005897      0.001836
N	      5.47945      0.55778      7.06250        -0.008899      0.005897     -0.001836
N	     15.66230      8.04202      3.12035        -0.001836     -0.005897      0.008899
N	      1.53730      9.15758      3.12035         0.001836      0.005897      0.008899
N	      1.53730      8.04202     14.07925         0.001836     -0.005897     -0.008899
N	     15.66230      9.15758     14.07925        -0.001836      0.005897     -0.008899
N	      3.12035     15.66230      8.04202         0.008899     -0.001836     -0.005897
N	      3.12035      1.53730      9.15758         0.008899      0.001836      0.005897
N	     14.07925      1.53730      8.04202        -0.008899      0.001836     -0.005897
N	     14.07925     15.66230      9.15758        -0.008899     -0.001836      0.005897
N	      8.04202      3.12035     15.66230        -0.005897      0.008899     -0.001836
N	      9.15758      3.12035      1.53730         0.005897      0.008899      0.001836
N	      8.04202     14.07925      1.53730        -0.005897     -0.008899      0.001836
N	      9.15758     14.07925     15.66230         0.005897     -0.008899     -0.001836
N	      8.04202     15.66230      3.12035        -0.005897     -0.001836      0.008899
N	      9.15758      1.53730      3.12035         0.005897      0.001836      0.008899
N	      8.04202      1.53730     14.07925        -0.005897      0.001836     -0.008899
N	      9.15758     15.66230     14.07925         0.005897     -0.001836     -0.008899
N	     15.66230      3.12035      8.04202        -0.001836      0.008899     -0.005897
N	      1.53730      3.12035      9.15758         0.001836      0.008899      0.005897
N	      1.53730     14.07925      8.04202         0.001836     -0.008899     -0.005897
N	     15.66230     14.07925      9.15758        -0.001836     -0.008899      0.005897
N	      3.12035      8.04202     15.66230         0.008899     -0.005897     -0.001836
N	      3.12035      9.15758      1.53730         0.008899      0.005897      0.001836
N	     14.07925      8.04202      1.53730        -0.008899     -0.005897      0.001836
N	     14.07925      9.15758     15.66230        -0.008899      0.005897     -0.001836
Zn	      8.59980      0.00000     12.89970        -0.000000      0.000000      0.000000
Zn	      8.59980      0.00000      4.29990        -0.000000      0.000000      0.000000
Zn	     12.89970      8.59980      0.00000        -0.000000      0.000000      0.000000
Zn	      4.29990      8.59980      0.00000        -0.000000      0.000000      0.000000
Zn	      0.00000     12.89970      8.59980        -0.000000      0.000000      0.000000
Zn	      0.00000      4.29990      8.59980        -0.000000      0.000000      0.000000
Zn	      0.00000      8.59980     12.89970        -0.000000      0.000000      0.000000
Zn	      0.00000      8.59980      4.29990        -0.000000      0.000000      0.000000
Zn	      8.59980     12.89970      0.00000        -0.000000      0.000000      0.000000
Zn	      8.59980      4.29990      0.00000        -0.000000      0.000000      0.000000
Zn	     12.89970      0.00000      8.59980        -0.000000      0.000000      0.000000
Zn	      4.29990      0.00000      8.59980        -0.000000      0.000000      0.000000
H	      6.73296     14.62792     12.42413         0.010559     -0.024304      0.023637
H	     10.46664      2.57168     12.42413        -0.010559      0.024304      0.023637
H	     10.46664     14.62792      4.77547        -0.010559     -0.024304     -0.023637
H	      6.73296      2.57168      4.77547         0.010559      0.024304     -0.023637
H	     12.42413      6.73296     14.62792         0.023637      0.010559     -0.024304
H	     12.42413     10.46664      2.57168         0.023637     -0.010559      0.024304
H	      4.77547     10.46664     14.62792        -0.023637     -0.010559     -0.024304
H	      4.77547      6.73296      2.57168        -0.023637      0.010559      0.024304
H	     14.62792     12.42413      6.73296        -0.024304      0.023637      0.010559
H	      2.57168     12.42413     10.46664         0.024304      0.023637     -0.010559
H	     14.62792      4.77547     10.46664        -0.024304     -0.023637     -0.010559
H	      2.57168      4.77547      6.73296         0.024304     -0.023637      0.010559
H	     14.62792      6.73296     12.42413        -0.024304      0.010559      0.023637
H	      2.57168     10.46664     12.42413         0.024304     -0.010559      0.023637
H	     14.62792     10.46664      4.77547        -0.024304     -0.010559     -0.023637
H	      2.57168      6.73296      4.77547         0.024304      0.010559     -0.023637
H	      6.73296     12.42413     14.62792         0.010559      0.023637     -0.024304
H	     10.46664     12.42413      2.57168        -0.010559      0.023637      0.024304
H	     10.46664      4.77547     14.62792        -0.010559     -0.023637     -0.024304
H	      6.73296      4.77547      2.57168         0.010559     -0.023637      0.024304
H	     12.42413     14.62792      6.73296         0.023637     -0.024304      0.010559
H	     12.42413      2.57168     10.46664         0.023637      0.024304     -0.010559
H	      4.77547     14.62792     10.46664        -0.023637     -0.024304     -0.010559
H	      4.77547      2.57168      6.73296        -0.023637      0.024304      0.010559
H	     15.33276      6.02812      3.82433         0.010559     -0.024304      0.023637
H	      1.86685     11.17148      3.82433        -0.010559      0.024304      0.023637
H	      1.86685      6.02812     13.37527        -0.010559     -0.024304     -0.023637
H	     15.33276     11.17148     13.37527         0.010559      0.024304     -0.023637
H	      3.82433     15.33276      6.02812         0.023637      0.010559     -0.024304
H	      3.82433      1.86685     11.17148         0.023637     -0.010559      0.024304
H	     13.37527      1.86685      6.02812        -0.023637     -0.010559     -0.024304
H	     13.37527     15.33276     11.17148        -0.023637      0.010559      0.024304
H	      6.02812      3.82433     15.33276        -0.024304      0.023637      0.010559
H	     11.17148      3.82433      1.86685         0.024304      0.023637     -0.010559
H	      6.02812     13.37527      1.86685        -0.024304     -0.023637     -0.010559
H	     11.17148     13.37527     15.33276         0.024304     -0.023637      0.010559
H	      6.02812     15.33276      3.82433        -0.024304      0.010559      0.023637
H	     11.17148      1.86685      3.82433         0.024304     -0.010559      0.023637
H	      6.02812      1.86685     13.37527        -0.024304     -0.010559     -0.023637
H	     11.17148     15.33276     13.37527         0.024304      0.010559     -0.023637
H	     15.33276      3.82433      6.02812         0.010559      0.023637     -0.024304
H	      1.86685      3.82433     11.17148        -0.010559      0.023637      0.024304
H	      1.86685     13.37527      6.02812        -0.010559     -0.023637     -0.024304
H	     15.33276     13.37527     11.17148         0.010559     -0.023637      0.024304
H	      3.82433      6.02812     15.33276         0.023637     -0.024304      0.010559
H	      3.82433     11.17148      1.86685         0.023637      0.024304     -0.010559
H	     13.37527      6.02812      1.86685        -0.023637     -0.024304     -0.010559
H	     13.37527     11.17148     15.33276        -0.023637      0.024304      0.010559
H	      7.29676      2.08717     11.16151         0.014495      0.019727      0.029694
H	      9.90284     15.11243     11.16151        -0.014495     -0.019727      0.029694
H	      9.90284      2.08717      6.03809        -0.014495      0.019727     -0.029694
H	      7.29676     15.11243      6.03809         0.014495     -0.019727     -0.029694
H	     11.16151      7.29676      2.08717         0.029694      0.014495      0.019727
H	     11.16151      9.90284     15.11243         0.029694     -0.014495     -0.019727
H	      6.03809      9.90284      2.08717        -0.029694     -0.014495      0.019727
H	      6.03809      7.29676     15.11243        -0.029694      0.014495     -0.019727
H	      2.08717     11.16151      7.29676         0.019727      0.029694      0.014495
H	     15.11243     11.16151      9.90284        -0.019727      0.029694     -0.014495
H	      2.08717      6.03809      9.90284         0.019727     -0.029694     -0.014495
H	     15.11243      6.03809      7.29676        -0.019727     -0.029694      0.014495
H	      2.08717      7.29676     11.16151         0.019727      0.014495      0.029694
H	     15.11243      9.90284     11.16151        -0.019727     -0.014495      0.029694
H	      2.08717      9.90284      6.03809         0.019727     -0.014495     -0.029694
H	     15.11243      7.29676      6.03809        -0.019727      0.014495     -0.029694
H	      7.29676     11.16151      2.08717         0.014495      0.029694      0.019727
H	      9.90284     11.16151     15.11243        -0.014495      0.029694     -0.019727
H	      9.90284      6.03809      2.08717        -0.014495     -0.029694      0.019727
H	      7.29676      6.03809     15.11243         0.014495     -0.029694     -0.019727
H	     11.16151      2.08717      7.29676         0.029694      0.019727      0.014495
H	     11.16151     15.11243      9.90284         0.029694     -0.019727     -0.014495
H	      6.03809      2.08717      9.90284        -0.029694      0.019727     -0.014495
H	      6.03809     15.11243      7.29676        -0.029694     -0.019727      0.014495
H	     15.89656     10.68697      2.56171         0.014495      0.019727      0.029694
H	      1.30304      6.51263      2.56171        -0.014495     -0.019727      0.029694
H	      1.30304     10.68697     14.63789        -0.014495      0.019727     -0.029694
H	     15.89656      6.51263     14.63789         0.014495     -0.019727     -0.029694
H	      2.56171     15.89656     10.68697         0.029694      0.014495      0.019727
H	      2.56171      1.30304      6.51263         0.029694     -0.014495     -0.019727
H	     14.63789      1.30304     10.68697        -0.029694     -0.014495      0.019727
H	     14.63789     15.89656      6.51263        -0.029694      0.014495     -0.019727
H	     10.68697      2.56171     15.89656         0.019727      0.029694      0.014495
H	      6.51263      2.56171      1.30304        -0.019727      0.029694     -0.014495
H	     10.68697     14.63789      1.30304         0.019727     -0.029694     -0.014495
H	      6.51263     14.63789     15.89656        -0.019727     -0.029694      0.014495
H	     10.68697     15.89656      2.56171         0.019727      0.014495      0.029694
H	      6.51263      1.30304      2.56171        -0.019727     -0.014495      0.029694
H	     10.68697      1.30304     14.63789         0.019727     -0.014495     -0.029694
H	      6.51263     15.89656     14.63789        -0.019727      0.014495     -0.029694
H	     15.89656      2.56171     10.68697         0.014495      0.029694      0.019727
H	      1.30304      2.56171      6.51263        -0.014495      0.029694     -0.019727
H	      1.30304     14.63789     10.68697        -0.014495     -0.029694      0.019727
H	     15.89656     14.63789      6.51263         0.014495     -0.029694     -0.019727
H	      2.56171     10.68697     15.89656         0.029694      0.019727      0.014495
H	      2.56171      6.51263      1.30304         0.029694     -0.019727     -0.014495
H	     14.63789     10.68697      1.30304        -0.029694      0.019727     -0.014495
H	     14.63789      6.51263     15.89656        -0.029694     -0.019727      0.014495
H	      7.66053      1.47899      9.53907         0.032201     -0.002228     -0.032201
H	      9.53907     15.72061      9.53907        -0.032201      0.002228     -0.032201
H	      9.53907      1.47899      7.66053        -0.032201     -0.002228      0.032201
H	      7.66053     15.72061      7.66053         0.032201      0.002228      0.032201
H	      9.53907      7.66053      1.47899        -0.032201      0.032201     -0.002228
H	      9.53907      9.53907     15.72061        -0.032201     -0.032201      0.002228
H	      7.66053      9.53907      1.47899         0.032201     -0.032201     -0.002228
H	      7.66053      7.66053     15.72061         0.032201      0.032201      0.002228
H	      1.47899      9.53907      7.66053        -0.002228     -0.032201      0.032201
H	     15.72061      9.53907      9.53907         0.002228     -0.032201     -0.032201
H	      1.47899      7.66053      9.53907        -0.002228      0.032201     -0.032201
H	     15.72061      7.66053      7.66053         0.002228      0.032201      0.032201
H	     16.26033     10.07879      0.93927         0.032201     -0.002228     -0.032201
H	      0.93927      7.12081      0.93927        -0.032201      0.002228     -0.032201
H	      0.93927     10.07879     16.26033        -0.032201     -0.002228      0.032201
H	     16.26033      7.12081     16.26033         0.032201      0.002228      0.032201
H	      0.93927     16.26033     10.07879        -0.032201      0.032201     -0.002228
H	      0.93927      0.93927      7.12081        -0.032201     -0.032201      0.002228
H	     16.26033      0.93927     10.07879         0.032201     -0.032201     -0.002228
H	     16.26033     16.26033      7.12081         0.032201      0.032201      0.002228
H	     10.07879      0.93927     16.26033        -0.002228     -0.032201      0.032201
H	      7.12081      0.93927      0.93927         0.002228     -0.032201     -0.032201
H	     10.07879     16.26033      0.93927        -0.002228      0.032201     -0.032201
H	      7.12081     16.26033     16.26033         0.002228      0.032201      0.032201
