  4.9973047e-01   1.2957961e-02
  1.4477870e-01   5.7424810e-02
 -5.3638235e-02   1.4758518e-02
  1.6909778e-01   7.3481329e-02
 -3.1274489e-01   4.9701218e-02
  2.3846669e-01   5.3094309e-02
  3.3150014e-01   4.0604975e-02
  9.5058911e-02   6.8286270e-02
 -1.2795608e-01   5.6589168e-02
  2.0239693e-01   4.4354796e-02
 -5.4950809e-01   6.8140648e-02
  4.1612759e-01   1.5050103e-02
 -1.0732383e-01   6.0527168e-02
 -3.2356866e-02   1.2818070e-02
  2.0317876e-01   9.3415931e-02
  1.7878197e-01   8.8253789e-02
  3.3053941e-01   8.4782064e-02
 -3.2492064e-02   1.1755931e-01
  2.9662579e-01   5.5674292e-02
 -5.9533507e-02   3.4962494e-02
  6.7735143e-02   3.2952305e-02
 -1.0615335e-01   4.1413866e-02
 -4.7407765e-02   2.8965522e-02
  2.8594412e-02   8.4303476e-02
  1.3036786e-01   3.3631027e-02
 -7.4661598e-02   1.8685684e-02
  1.0673407e-01   4.7718830e-02
 -2.4301077e-01   3.0695051e-02
  9.4786342e-03   3.6546133e-02
  2.4064779e-02   5.6606825e-02
 -1.8411808e-01   1.1222878e-02
 -1.1975942e-01   3.4150302e-02
 -3.8370356e-01   4.3850187e-02
  9.8709017e-02   2.1676885e-02
  9.7232744e-02   8.0982462e-02
 -9.8315984e-02   6.5022431e-02
  1.3220343e-01   4.4565201e-02
  6.9148876e-02   1.8783173e-02
  1.0851172e-01   3.0324591e-02
  1.1483167e-01   3.0779935e-02
 -2.1480072e-02   5.7370864e-02
  3.4439947e-02   8.3778678e-03
 -5.0404841e-01   3.5830919e-02
  9.4210124e-04   3.5433069e-02
 -1.8508562e-01   8.4681898e-02
 -1.6939675e-02   4.4312086e-02
  2.1943383e-01   2.5003472e-02
 -2.4061853e-01   6.9091305e-02
 -2.2856218e-01   2.8443947e-02
  1.7131001e-01   1.8512568e-02
 -4.6075858e-02   5.8828533e-02
  1.1738668e-01   8.4254898e-02
  9.1553926e-02   1.2019820e-01
  2.1042280e-01   2.5885874e-02
  2.2126532e-01   2.5943635e-02
 -2.1855204e-01   5.7457034e-02
  1.8607566e-01   6.5211117e-02
  1.8131265e-01   6.9356933e-02
 -6.5880775e-01   8.8511795e-02
  7.1670718e-02   5.1046252e-02
  9.7873509e-01   8.7266481e-03
  3.9628193e-02   8.2139648e-02
  1.2350946e-01   4.3730982e-02
  1.4284971e-01   4.0528450e-02
  2.4422525e-01   4.0509705e-02
  1.6741818e-01   6.2347118e-02
  2.6376605e-02   3.9608937e-02
  2.2188695e-01   3.7070610e-02
 -7.3407874e-02   5.5402812e-02
  1.0873641e-02   6.5991215e-02
  1.1970414e-01   4.2069480e-02
  1.1286701e-02   4.2403277e-02
  4.8630238e-02   7.9589970e-02
 -2.2706042e-01   6.3282311e-02
  2.5132068e-02   1.8677995e-02
  1.8533520e-01   1.1056853e-01
  5.8761112e-02   6.1629843e-02
 -3.1398612e-01   2.0725664e-02
  3.5047084e-02   5.4927178e-02
 -3.1458867e-01   4.9288347e-02
 -9.8315969e-02   9.3291335e-02
 -2.7836780e-03   9.5241308e-02
 -1.5727921e-01   3.5874572e-02
 -1.7649755e-01   7.5701267e-02
  1.7030576e-01   3.3449829e-02
 -1.6945746e-02   6.1536912e-02
  7.3312208e-02   5.7803951e-02
 -7.0892297e-02   2.7135804e-02
 -1.7298503e-02   6.2456425e-02
 -2.0084378e-01   7.7378161e-02
 -5.1622093e-01   8.4963702e-03
 -1.7975765e-01   5.4802246e-02
  3.2927719e-01   7.7059664e-02
  7.1509123e-02   3.3080138e-02
 -7.6437682e-02   6.3812688e-02
  2.6825732e-01   5.9670180e-02
  3.2150146e-01   5.7572775e-02
 -1.3749243e-01   4.6918966e-02
 -9.2081025e-02   3.7081093e-02
 -2.1482384e-01   9.5157988e-02
 -1.7815800e-01   6.0413767e-02
 -2.8953335e-01   2.1910176e-02
 -9.9877760e-02   2.7738912e-02
 -6.2907949e-02   7.6593347e-02
  2.1035883e-01   2.6094144e-02
  2.7478260e-01   8.8320687e-02
  6.1290447e-02   6.0581896e-02
  2.1585619e-01   3.3993866e-02
  1.8559320e-02   3.9976358e-02
 -1.6638835e-01   1.8221805e-02
  1.8584830e-01   6.1764859e-02
  1.6119745e-01   4.8871536e-02
  9.8774787e-03   7.0932083e-02
 -2.2250023e-01   3.4012564e-02
  2.4347143e-01   2.9807227e-02
 -2.0989284e-01   8.8649027e-02
  9.1210991e-02   5.6984913e-02
  1.3498276e-01   1.2545617e-01
  1.6600447e-02   6.0126320e-02
  1.2039095e-03   9.8735504e-02
 -7.8825045e-01   1.7113695e-02
  4.2603526e-02   2.6462557e-02
 -8.7359942e-02   6.9379352e-02
  5.6504287e-02   8.8742152e-02
  2.8289419e-01   4.5294557e-02
  8.1534022e-03   3.6146317e-02
 -2.4146119e-02   9.8728471e-02
  1.0463776e-01   1.7017063e-02
  3.3279815e-01   4.3805107e-02
  1.3640060e-01   4.3945875e-02
  2.1579962e-02   2.7671665e-02
 -3.5168755e-01   4.2545579e-02
  1.1768217e-01   2.5676660e-02
  1.3776313e-01   9.0684675e-02
  2.0412086e-02   3.3201534e-02
  8.6611010e-02   8.4281728e-02
 -2.0660627e-01   2.2022666e-02
 -1.4145890e-01   2.4324577e-02
  1.1921597e-01   7.9021297e-02
  1.3954226e-02   5.2088048e-02
  4.4638139e-01   6.2398564e-02
 -2.2573601e-01   3.1121535e-02
 -4.3254264e-02   2.6484963e-02
  1.8995412e-01   6.7548491e-02
 -6.4441678e-03   3.1603087e-02
 -2.9540479e-01   7.0761122e-02
  3.2596225e-01   5.2831158e-02
 -1.4301244e-02   1.4176663e-02
  3.0372196e-01   8.1218019e-02
  9.0049952e-02   1.9235658e-02
 -2.1024384e-01   9.8760324e-03
 -2.2868566e-02   2.9645301e-02
  2.4571800e-01   4.5560006e-02
  1.2092380e-01   3.5059728e-02
 -2.9418454e-02   3.6811929e-02
  9.2178926e-02   3.5930254e-02
  3.6701718e-03   5.1102661e-02
  1.3887151e-02   7.2063923e-02
  1.3960612e-01   6.6832267e-02
  1.5751952e-01   4.2715728e-02
  3.0492604e-01   1.3668674e-02
  4.4154939e-01   5.8276825e-02
 -1.2825680e-01   4.4329967e-02
  3.4550458e-01   7.6525681e-02
 -8.0378823e-02   3.9556243e-02
  8.9419492e-02   3.3120245e-02
 -1.6017887e-01   5.9215073e-02
 -1.1859258e-01   9.5716164e-02
 -2.2486077e-01   6.4351246e-02
  6.2225215e-02   4.7745164e-02
 -6.7938611e-02   4.9550109e-02
 -1.7540763e-01   3.9356194e-02
  1.0980925e-01   3.9047960e-02
 -8.5957602e-02   3.4481622e-02
 -3.0133215e-01   9.8431751e-02
  6.1036199e-02   4.6797987e-02
 -4.7394954e-02   4.0316176e-02
 -2.7522417e-02   5.4231737e-02
 -1.1219106e-01   7.7456959e-02
  4.4447765e-01   1.1634580e-02
  3.8804692e-01   2.1304401e-02
  3.8962908e-02   3.0605914e-02
 -1.1854131e-02   2.2500638e-02
  1.4576977e-02   2.2722991e-02
  1.0892594e-01   8.3506688e-02
 -1.3879497e-02   1.3758757e-02
  1.8330526e-01   5.9775557e-02
  8.6770184e-02   4.5971688e-02
 -3.4675147e-02   4.2117275e-02
  6.8702154e-02   5.4594126e-02
  2.8543833e-01   5.2805543e-02
 -1.4384869e-01   3.3603780e-02
 -1.5493977e-01   4.2643268e-02
 -6.0217414e-02   5.8639515e-02
  2.0897293e-01   6.2503994e-02
 -7.3066473e-02   5.3060994e-02
 -1.5337436e-02   1.0358405e-02
  9.5452495e-02   9.8289900e-02
 -2.0388275e-01   6.3699253e-02
  1.0033955e-01   5.3807314e-02
  1.1335178e-01   2.6351536e-02
 -1.2755628e-01   5.4704797e-02
  3.5378383e-03   4.0406633e-02
 -2.8991759e-01   8.3732143e-02
 -1.9418120e-01   5.6764282e-02
  1.1413985e-01   3.6335904e-02
  1.6413341e-01   4.7940973e-02
  4.1597742e-01   9.6465178e-02
 -2.6734456e-01   9.9061601e-02
 -3.8558438e-01   8.7418266e-02
  1.0123979e-01   2.5474569e-02
 -8.7120682e-02   5.1734373e-02
  1.2015278e-01   3.6757458e-02
  3.3213552e-02   2.2982702e-02
 -9.7709827e-02   3.1116556e-02
  1.8046290e-01   3.8707279e-02
 -4.9866885e-02   5.4907691e-02
 -1.2611634e-01   1.9535072e-02
 -1.5279038e-01   5.7166882e-02
  6.2439546e-02   4.0668033e-02
  2.4877250e-01   5.0229564e-02
 -2.0322511e-01   2.3309428e-02
  1.7536612e-02   3.5799436e-02
  4.0213145e-02   7.9153955e-02
  2.6756465e-01   1.4477149e-02
 -1.0348327e-01   7.8566678e-02
 -3.1539384e-01   9.9990763e-02
  5.3649675e-02   6.7886233e-02
 -1.3710387e-02   6.2347718e-02
  2.2406210e-01   4.3473378e-02
 -3.5928555e-02   7.5608067e-02
  1.2659836e-03   5.2013248e-02
 -9.1029689e-02   1.1378449e-02
 -7.1711922e-01   8.1114518e-03
  3.6438105e-01   4.7131192e-02
  1.5671651e-01   2.5022095e-02
  6.5470628e-02   5.3779937e-02
 -1.0350760e-02   3.4180429e-02
  2.6728207e-02   1.5650369e-02
 -2.0236881e-01   1.2940927e-02
  4.0125227e-01   1.6276069e-02
  1.1115722e-01   4.1741971e-02
 -1.3035777e-01   2.6325364e-02
 -4.5440074e-02   6.9675192e-02
  4.3582973e-01   3.0470330e-02
  5.9769701e-02   5.8777612e-02
 -1.6977112e-01   4.4686053e-02
 -7.1919300e-02   5.2419923e-02
 -2.9474050e-01   8.0212668e-02
  5.0362010e-02   6.2816076e-02
 -2.2889732e-01   3.4225062e-02
  2.1541156e-02   7.2123975e-02
 -1.5510772e-01   6.3697614e-02
  1.2508732e-01   5.3051438e-02
  1.5729733e-01   7.9219460e-02
 -8.4290594e-02   7.8806616e-02
 -6.0177229e-02   7.5609073e-02
 -1.5048730e-01   4.6292748e-02
  2.6253007e-02   3.9831333e-02
 -8.4092684e-02   4.4555914e-02
  2.3839681e-01   5.0014805e-02
  1.5527569e-01   5.0629169e-02
  2.3219589e-02   3.7623495e-02
  3.7502965e-01   6.6966109e-02
 -5.9331479e-03   6.0086988e-02
 -5.2462623e-02   4.3329142e-02
 -5.0125074e-02   4.3639209e-02
 -4.9733058e-02   4.7818925e-02
 -7.3404843e-01   1.2546352e-01
  2.2184223e-02   3.2407466e-02
 -2.0134604e-01   7.3011318e-04
  4.3742514e-01   2.7504377e-03
  2.9811207e-02   4.3842504e-03
 -1.9114822e-01   4.1719358e-03
  1.6472231e+00   7.6726754e-03
 -2.2045466e-01   9.0151481e-02
  2.2983113e-01   2.6938703e-02
  3.8706860e-01   3.7187718e-02
  3.4602355e-02   6.2598903e-03
 -5.5701576e-02   2.2788402e-02
  1.0290340e-02   8.3433636e-02
 -1.0506742e-01   2.1415766e-02
 -2.2131827e-01   6.3423961e-02
  7.0305282e-01   4.8804088e-03
  3.0597699e-01   2.0609351e-02
  9.3954459e-02   4.7392245e-02
 -4.7480509e-02   4.5837186e-02
  8.7413013e-02   2.6778389e-02
 -1.3649289e-01   8.8585708e-03
  3.7678298e-02   1.3909234e-02
  1.2378758e+00   3.4003945e-03
  9.4999313e-02   4.6481647e-02
  2.4092618e-02   4.2555511e-02
  2.5396493e-01   1.9453473e-02
  2.3881614e-01   7.9752430e-03
 -1.7162183e-01   7.4134476e-02
  9.9330612e-02   1.9069502e-02
 -9.0911813e-02   5.9657674e-02
 -1.2769809e-02   1.3932454e-02
 -9.9873796e-02   3.7710253e-02
 -3.9645422e-02   1.3638780e-02
  6.5443628e-02   3.2178599e-02
 -1.6341525e-01   2.4371320e-02
  8.5976034e-02   1.9118376e-02
  2.3342089e-01   2.1003777e-02
  3.0976552e-01   4.5812022e-02
  2.1635558e-02   1.7586024e-02
 -1.9077902e-01   7.7233292e-02
  6.2537387e-02   3.4547370e-02
 -2.0231834e-01   4.0148806e-02
  2.3338879e-02   9.8737560e-02
  2.0462395e-01   4.5610026e-02
 -1.8754691e-01   5.0670166e-02
  2.5216276e-02   4.1061912e-02
  1.4283057e-01   8.5673399e-02
 -6.2177077e-02   8.9089550e-02
  9.9308252e-02   2.7216485e-02
  3.4039986e-01   8.4488258e-02
 -1.5520367e-01   4.9136944e-02
 -3.1127047e-02   4.1552778e-02
 -6.7815773e-02   4.1148789e-02
  8.4178865e-02   3.1225035e-02
  2.3029664e-01   4.0198587e-02
 -6.4766124e-02   5.2632727e-02
 -8.6236848e-03   4.0549688e-02
 -9.1761202e-02   5.1222906e-02
 -1.0074618e-01   2.7526470e-02
  1.1123627e-01   5.1588889e-02
 -1.7834716e-02   1.5389091e-02
  9.5413059e-02   3.4959760e-02
 -4.4026859e-02   1.8307174e-02
  3.2762182e-01   8.3301909e-02
  1.0298504e-01   3.5411697e-02
 -8.3969980e-02   1.2722782e-02
  3.1510851e-01   2.3784161e-02
  2.6866298e-02   2.7846700e-02
 -4.2109802e-02   3.7928086e-02
 -3.2264772e-01   2.8285483e-02
  1.0448101e-02   4.7590239e-03
 -2.5357130e-01   5.3936463e-02
  6.2827341e-02   2.4774041e-02
  7.1609087e-02   8.6094923e-02
 -4.5493063e-02   6.4339899e-02
 -9.2316076e-02   5.4495834e-02
 -2.5697547e-01   4.0721536e-02
 -8.2752928e-02   8.2259998e-02
 -4.8230592e-02   1.6302949e-02
  1.5396728e-01   7.7761978e-02
 -1.0285570e-01   2.0669531e-02
 -2.4815598e-01   2.7915632e-02
  1.2536842e-01   8.4098630e-02
 -4.8148641e-03   3.7992578e-02
 -8.2118846e-02   5.6126054e-02
 -1.2877269e-01   3.0414641e-02
  1.7707446e-01   2.4729818e-02
 -3.2043684e-02   4.0539730e-02
 -1.1299034e-01   3.4272786e-02
 -4.6777123e-01   5.5994507e-02
  7.3500521e-02   2.9786412e-02
  1.4428679e-02   6.4091571e-02
  1.2152403e-01   2.2811107e-03
  4.2981812e-01   3.1022895e-02
 -1.3978895e+00   5.7925307e-03
  5.1249254e-01   1.7307755e-02
 -2.4416404e-02   4.1408390e-02
  2.0069148e-01   9.4521999e-02
  8.9486249e-02   8.1792876e-02
 -1.9624034e-01   5.1145546e-02
 -1.5238719e-01   3.3013698e-02
  2.2036134e-01   2.9728370e-02
  7.4566334e-02   1.9724827e-02
  1.1300955e-01   4.6712101e-02
  1.8179527e-01   6.0745109e-02
  2.2884314e-01   4.3593604e-02
 -1.4324050e-01   1.6728118e-02
  1.3612930e-01   4.4974800e-02
 -8.7584451e-02   1.7469101e-02
  2.2025192e-01   1.0668758e-01
 -3.1955568e-03   1.8532455e-02
 -3.4774089e-01   6.4212807e-02
  1.6450274e-01   3.6997519e-02
  3.2265440e-02   3.0533615e-02
 -2.3844771e-01   5.1118046e-02
  2.1063395e-01   3.2934811e-02
 -5.7040393e-02   6.8319060e-02
  4.9703408e-02   3.8155232e-02
  2.0455952e-01   2.7938206e-02
 -2.4110340e-03   6.3622259e-02
 -2.5379326e-02   7.2640508e-02
  7.8242347e-02   9.9101499e-02
  3.1198505e-01   1.5554403e-02
 -1.0774054e-01   4.6177395e-02
 -2.8242249e-02   6.2826157e-02
  4.4677585e-02   3.9052777e-02
  8.9143226e-03   4.9848206e-02
 -6.4049102e-03   5.2312318e-02
 -1.2929253e-01   6.6779464e-02
  3.0947575e-01   1.0853183e-01
 -5.6735754e-02   4.4961408e-02
  2.2104561e-01   6.8375446e-02
 -1.8470299e-01   3.8422648e-02
 -3.7912044e-01   6.0933556e-02
  4.9196456e-02   3.2218244e-02
  2.1463686e-01   5.2400574e-02
  3.2113567e-01   8.6422920e-02
  1.3549344e-01   1.9208906e-02
 -1.9138405e-01   1.0917521e-01
  2.7084616e-01   2.2317391e-02
  2.7447996e-01   5.1717710e-02
  9.3897626e-02   6.1235663e-02
 -1.2266432e-01   4.4251323e-02
 -9.4241545e-02   5.4656148e-02
  2.2201258e-01   7.0991531e-02
 -2.5266993e-01   6.3220344e-02
 -4.9394097e-02   7.3841490e-02
 -2.8521013e-02   1.5872885e-02
 -1.2406363e-01   7.1349457e-02
  1.8812558e-01   4.2420000e-02
  2.5466692e-01   5.7714988e-02
 -1.8782608e-02   2.6829829e-02
 -3.9647979e-01   1.1721980e-02
 -1.5523352e-01   2.6144501e-02
  1.2158508e-01   2.1174986e-02
 -3.3230519e-01   4.8204988e-02
  9.2550926e-02   3.4156132e-02
 -2.4766585e-01   6.9532722e-02
 -1.0187560e-01   6.3721023e-02
 -1.7907034e-01   6.3555747e-02
  3.1306213e-01   1.1353072e-02
  3.8956594e-01   3.9588194e-02
 -4.4232436e-02   4.1167393e-02
 -2.2849947e-01   3.9184060e-02
  3.7850842e-02   5.0015971e-02
  1.4100009e-01   2.0464586e-02
  7.7963676e-03   7.3790200e-02
 -1.0880800e-01   8.2160411e-03
 -7.8625837e-04   5.4928053e-02
 -2.5847781e-01   3.8481597e-02
 -1.3462198e-01   4.8913267e-02
  2.1078333e-01   2.7413582e-02
  3.2306228e-02   3.2792762e-02
 -3.2287234e-01   7.2216809e-02
  2.1760169e-02   4.5825418e-02
 -3.1115332e-01   3.7659261e-02
 -1.9559483e-01   1.6805019e-02
  3.4951293e-01   8.0619119e-02
  2.4200669e-03   3.6325630e-02
  1.6452847e-01   4.2363420e-02
 -3.4452412e-02   2.9380806e-02
 -2.3229350e-01   3.9254416e-02
 -3.4996459e-01   6.8979491e-03
 -2.4728283e-01   1.2921374e-02
 -9.5177889e-02   2.2685817e-02
 -1.4089337e-01   6.0509019e-02
  3.0038673e-01   4.0561333e-02
 -3.8706246e-01   4.9569737e-02
 -8.4117807e-02   6.3036039e-02
  1.0836723e-01   4.5515273e-02
 -1.1131358e-01   4.1647214e-02
  5.5087656e-02   4.3447405e-02
 -6.7168653e-02   4.1027810e-02
 -1.1635289e-01   5.1268883e-02
 -1.4430381e-01   8.4626257e-02
 -3.6270109e-01   4.4369463e-02
 -7.4233219e-02   4.4711687e-02
  1.5552159e-01   4.9658809e-02
  2.6422682e-01   7.1143992e-02
 -4.4229591e-01   5.3229354e-02
 -5.2778256e-01   3.6400441e-02
  4.4509850e-02   2.8741768e-02
  2.4779849e-02   4.5832541e-02
  1.5672632e-01   2.6166268e-02
 -2.4026586e-01   7.4235983e-02
 -6.2298320e-02   4.3859854e-02
 -6.6523112e-02   9.3198251e-03
 -8.2829297e-02   4.1997064e-02
  3.4006980e-01   3.0984735e-02
 -2.6234820e-02   1.0185835e-01
  2.0422536e-01   3.6830116e-02
  5.0306827e-02   7.9562582e-02
  4.0436473e-01   2.4459811e-03
 -1.1268321e-01   4.2813946e-02
 -1.5778236e-01   4.4757832e-02
 -1.0996190e-01   2.3296744e-02
  3.5718468e-03   1.4944836e-02
 -6.1527431e-02   5.3596865e-02
  2.7496960e-02   3.6431160e-02
  5.0051723e-02   3.9752681e-02
  8.1382737e-02   6.4436510e-02
  3.2899064e-01   2.0886878e-02
  2.0810284e-01   5.1547348e-02
 -2.2529332e-01   1.5940512e-02
 -4.5433711e-02   4.2036545e-02
  4.3143401e-01   5.2862570e-02
  9.4152205e-02   6.0568593e-02
 -1.0162713e-02   3.9024737e-02
 -2.1140878e-01   4.2953245e-02
  5.5324990e-02   7.8888692e-02
  1.0777991e-01   2.5411701e-02
 -4.1687727e-01   1.3220877e-02
  1.3967606e-01   6.4933285e-02
 -8.3227897e-01   2.3456477e-02
  6.5512463e-02   2.4605794e-02
 -2.6392195e-02   1.4119141e-02
 -1.0734367e-01   3.4965687e-02
 -1.6262169e-01   7.9723358e-02
  1.0426722e-01   6.8032861e-02
  8.4826574e-02   7.8917705e-02
  3.4193704e-01   5.9306227e-02
 -2.9485710e-03   3.1098807e-02
  2.5824483e-02   3.7461724e-02
  1.5541771e-01   6.6446520e-02
 -4.2714953e-02   2.5069648e-02
  1.1989643e-01   5.1048920e-02
 -4.4590432e-02   4.0460791e-02
  1.9889712e-02   7.0552908e-02
 -2.8369683e-01   4.5296386e-02
  1.9626129e-01   1.4784458e-01
  1.9678394e-01   7.8706937e-03
 -1.4388993e-02   5.0202295e-02
 -1.8541783e-02   1.0289953e-02
  1.1056079e-01   3.6070585e-02
 -3.8173372e-01   9.9977531e-02
 -9.3359463e-03   9.8205954e-03
 -1.6160947e-01   5.3810123e-02
  1.2839253e-01   6.6894099e-02
 -3.6881503e-02   3.4272254e-02
  7.3525473e-02   1.0905471e-01
  2.7426192e-01   3.0425008e-02
  2.2146177e-02   6.0744081e-02
 -3.3933011e-01   1.9111127e-02
 -2.9072586e-01   6.2369980e-02
  3.1877521e-01   4.0667724e-02
 -1.0959988e-01   7.3827691e-02
  6.9057727e-03   1.0523617e-01
 -1.1741180e-01   4.0783603e-02
  1.5492967e-01   4.2686369e-02
 -2.2015639e-01   3.2973666e-02
  9.3886644e-02   5.6725133e-02
  1.7478634e-03   7.8541391e-02
 -4.7275138e-01   2.1775521e-03
 -1.1899098e-01   6.0311733e-03
 -7.6298881e-01   5.2444469e-03
  7.1820623e-01   3.4319398e-03
  2.2363082e-02   1.1252080e-02
 -1.9283099e-02   6.2833302e-02
 -1.4117385e-01   5.2113093e-02
 -1.4480528e-01   5.3465348e-02
  2.3112695e-01   1.2235849e-02
  8.0075085e-02   3.3317942e-02
 -1.6515543e-01   4.6050649e-02
  9.0629041e-02   2.2472309e-02
 -1.2581095e-01   6.1578926e-02
 -2.1491519e-01   2.2800874e-02
 -1.9998354e-01   3.5751496e-02
 -8.6492710e-02   2.7675778e-02
  2.2467770e-01   6.5081805e-02
  2.5807949e-02   2.1433188e-02
  2.7620379e-02   1.9557120e-02
  1.0873275e-01   2.4009332e-02
  2.9122144e-01   5.0026219e-02
  2.6777510e-02   4.1987974e-02
 -1.5400054e-01   7.5575382e-02
 -7.3662919e-01   1.1534886e-02
 -2.1573914e-02   1.9353349e-02
  8.6637951e-02   4.7097709e-02
  4.4378087e-02   5.1202096e-02
  1.8927520e-03   3.9402474e-02
 -7.4287735e-02   3.9550826e-02
  2.2283731e-01   8.9235798e-02
 -1.5924510e-01   4.2927981e-04
 -6.6688502e-01   1.5354934e-03
 -1.5314749e+00   3.0459671e-03
  7.9098982e-01   1.9700597e-03
  6.4139289e-01   1.0120324e-02
 -3.2386994e-01   3.5166148e-02
 -4.1417080e-01   2.0750733e-02
 -2.5861770e-01   2.8972203e-02
 -1.1768275e+00   7.3284735e-03
  5.0018406e-03   2.1147344e-02
 -1.8027978e-01   5.1450212e-02
  1.7709883e-01   6.8242610e-02
 -4.5247766e-01   5.7020791e-02
 -6.9995999e-01   1.0481882e-02
 -3.5786375e-01   3.5065033e-02
  3.4236088e-02   7.2824627e-02
  9.1676779e-02   3.1628218e-02
 -1.1488248e-04   1.3027624e-02
 -4.1484606e-01   3.9495290e-03
 -8.9914300e-02   1.7178195e-02
  4.1128974e-02   3.2358631e-02
  1.9209845e-01   2.7248589e-02
 -8.2826056e-02   1.6357569e-02
 -4.2292958e-01   5.6420146e-03
  3.4361586e-02   1.4903598e-02
 -1.1853551e-01   4.2585164e-02
  1.5073231e-01   7.7437945e-02
  1.3476679e-01   1.2133233e-01
 -6.2835619e-02   2.4235088e-02
  1.5025678e-02   3.6496691e-02
  1.0796954e-01   1.1854419e-02
  1.0539809e-01   5.1530275e-02
  7.2978020e-02   8.4831499e-02
  1.7057610e-01   3.5639979e-02
 -4.1070297e-02   8.7654114e-02
  9.2190402e-03   7.4717477e-02
 -2.0736544e-01   4.5046691e-02
 -1.9946651e-01   2.3144232e-02
 -1.5086353e-01   3.2272410e-02
 -4.8842049e-01   4.7971547e-02
 -3.8952336e-02   3.9089523e-02
  1.9370613e-01   8.7620810e-02
 -1.2247209e-01   6.0409855e-02
 -5.7304390e-02   4.4766616e-02
  7.2012462e-02   3.8970668e-02
 -1.1590607e-03   8.4875546e-02
  1.1050268e-01   5.1832840e-02
 -1.9145650e-01   7.5807191e-02
 -1.4450610e-01   7.6758161e-02
 -1.1530727e-01   2.3931572e-02
 -4.5007970e-03   5.0528817e-02
 -5.8479369e-02   7.0330441e-02
 -5.9194095e-02   3.0464534e-02
 -5.9572631e-01   4.9040951e-02
 -1.4603668e-01   6.2427845e-02
 -2.1650979e-01   5.3192005e-02
  1.4796777e-01   4.4584770e-02
  3.8156014e-02   7.0711359e-02
  2.0295866e-01   2.3693029e-02
 -5.3689951e-01   8.0891609e-02
 -5.6214020e-02   1.1191112e-02
  8.1618458e-02   1.0089643e-02
 -3.2728381e-02   2.8321205e-02
  2.8768578e-01   1.1514895e-02
  2.2798790e-02   4.3783821e-02
  3.2215763e-02   2.9277008e-02
  6.3086070e-02   4.3872070e-02
  1.2243076e-01   4.1385610e-02
  2.9625025e-01   2.5783757e-02
 -1.2010540e-01   4.8624709e-02
 -1.5016417e-01   5.2977819e-02
 -6.5491244e-02   7.0727199e-02
  4.6299029e-02   5.3350843e-02
  2.0423342e-01   2.2620773e-02
  3.0233225e-01   2.0177340e-02
 -5.3296406e-02   3.1977929e-02
  5.1548034e-02   4.1287389e-02
  3.2228070e-01   2.7176678e-02
  2.4653915e-01   2.6799804e-02
  4.6939865e-02   3.2392871e-02
 -3.2827011e-01   4.3518167e-02
 -4.9043737e-02   6.1879080e-02
 -4.0579051e-01   4.6867304e-02
  1.2015630e-01   3.4328587e-02
 -2.1834114e-01   3.7651200e-02
  6.8320341e-02   4.6950109e-02
  2.9088331e-02   3.2752048e-02
 -3.3724782e-01   3.7619624e-02
  5.9250791e-02   1.6067177e-02
  1.3655831e-01   7.6063432e-02
  2.2313368e-02   1.1967960e-03
  6.8821251e-02   1.6460473e-03
 -2.1684881e-01   3.8057670e-03
 -9.6764857e-01   1.3219992e-03
  5.2713466e-01   3.5126412e-03
 -1.8481730e-01   6.2203541e-02
 -7.3783720e-01   1.8364077e-02
  1.5646431e-01   4.2794064e-02
  3.5903576e-01   3.8955100e-03
  3.4173763e-01   9.6151326e-03
 -4.5249060e-01   2.0334912e-02
  1.0004818e-02   1.1469036e-02
 -4.8803687e-02   2.7115451e-02
 -5.2580130e-01   4.5020939e-03
 -7.8337818e-01   6.3861860e-03
  2.7046931e-01   1.2815828e-02
 -1.8565774e-01   9.4647026e-03
  3.8648850e-01   8.7453090e-03
 -9.9123216e-01   3.4335915e-03
  2.6160604e-01   9.0374229e-03
  4.8949327e-03   2.9654428e-02
 -5.9466219e-01   4.4646531e-02
  1.3914313e-02   4.2879265e-02
 -1.2253660e-01   8.0215167e-03
 -1.0721296e-02   1.4470119e-02
 -4.4692863e-02   8.8699095e-02
  3.7825415e-01   5.6191705e-02
 -1.7137815e-01   3.5102651e-02
 -1.7438082e-01   1.5592665e-02
 -1.8200631e-01   5.2001927e-02
 -1.2529012e-02   1.5327205e-02
  7.9131320e-02   2.9408522e-02
  4.8992336e-02   4.9492653e-02
  6.6690511e-01   1.8953139e-02
  2.1046257e-01   3.1077366e-02
  8.4900320e-02   3.3797309e-02
  1.5330370e-01   6.0258254e-02
  8.6791301e-03   6.2620282e-02
  6.1344057e-02   1.9345157e-02
 -2.3157783e-02   4.8529685e-02
 -6.7020468e-02   3.0217847e-02
 -7.4289329e-02   2.5195090e-02
  3.7547275e-01   6.8145938e-02
 -6.4559970e-03   3.5119750e-02
  3.8967332e-01   3.4797430e-02
  5.0518527e-03   2.9304929e-02
  2.4812676e-01   4.2805657e-02
  8.6487539e-02   3.2567263e-02
  9.9785499e-02   2.8263824e-02
 -1.3111779e-01   4.2102497e-02
  1.2908734e-02   2.7899488e-03
  1.1402607e-01   1.9670121e-02
  2.3643282e-01   4.9129084e-02
  3.0041113e-01   1.3346411e-02
  2.2832796e-01   6.0938429e-02
 -9.7190633e-02   7.1766995e-02
  1.1624083e-01   4.8684891e-02
 -8.8337250e-02   8.5099712e-02
  6.9782580e-03   2.3745535e-02
  1.8407844e-01   2.8546805e-02
 -2.9538253e-01   2.2655534e-02
 -1.1174297e-01   6.7828529e-02
  4.9820912e-01   6.1328895e-02
  5.6023311e-02   1.4292587e-02
  1.9371369e-01   6.1955497e-02
 -7.5348981e-02   3.4405150e-02
 -3.7359536e-02   3.9210830e-02
 -3.0995414e-01   3.4185652e-02
 -1.9743182e-01   4.4795077e-02
  6.5646723e-02   1.8813455e-02
  6.5925069e-02   8.6437874e-02
 -3.8023129e-02   4.3603700e-02
 -5.5148113e-01   9.4676219e-02
 -3.7116896e-02   8.6080723e-02
  9.4171248e-02   6.3674346e-02
 -2.1288667e-02   3.8151838e-02
 -6.6598043e-02   2.9336289e-02
  1.0940638e-02   2.9368045e-02
 -3.4094919e-02   6.7259565e-02
  3.6949700e-01   1.4543440e-02
  2.2434866e-01   3.0292951e-02
 -1.8217283e-01   6.4190418e-02
 -7.9516523e-02   4.1452449e-02
 -2.0199886e-01   6.0895968e-02
 -2.2592266e-01   4.5385916e-02
 -1.6163845e-01   3.2503251e-02
 -4.7907017e-02   5.4904677e-02
 -2.5018296e-01   6.2619537e-02
  4.9422283e-02   5.8097564e-02
  4.0567871e-02   3.0408168e-02
  4.8685876e-01   3.2627236e-02
  9.5859528e-02   5.4777771e-02
  1.3051458e-01   4.8888739e-02
 -9.4759673e-02   2.9789316e-02
 -1.9133629e-01   4.3919954e-02
  8.5471436e-02   4.6799947e-02
 -4.7503553e-02   2.6538556e-02
  3.0350208e-01   5.5462629e-02
  2.0000383e-01   2.7814884e-02
  1.1035393e-02   2.7254621e-02
  4.5750640e-02   5.4142676e-02
  1.0625816e-01   4.6567142e-02
  3.9026603e-02   4.0128075e-02
  3.6566776e-01   2.9537912e-02
 -1.4436954e-01   4.7001008e-02
 -1.5913519e-01   4.5153905e-02
  3.2974473e-01   1.7545870e-02
 -2.7831215e-02   4.4931766e-02
 -1.6555271e-01   9.2220344e-02
  5.1863704e-02   4.0026810e-02
  3.2100618e-01   6.7329206e-02
 -3.7196919e-02   1.1458122e-01
  2.7892271e-02   5.6177575e-02
  4.5022916e-02   4.4887234e-02
 -4.3365080e-02   8.3806977e-02
 -4.8959743e-02   4.0024925e-02
  1.9661847e-01   5.9383649e-02
 -1.4863132e-01   3.1184809e-02
  1.3835682e-01   3.9202310e-02
  9.6194513e-02   6.1177514e-02
 -3.4927627e-01   2.1153182e-02
  5.9927367e-02   5.1905796e-02
 -4.1663937e-02   5.9649218e-02
 -2.0948756e-02   3.4586277e-02
  1.3377537e-01   4.0176407e-02
  1.8090367e-01   9.0705663e-02
  6.2092200e-02   4.5929704e-02
 -1.5108295e-01   5.2476563e-02
  2.8810152e-01   4.3674909e-02
  2.1998428e-01   1.0509296e-02
 -1.0862052e-01   8.2424454e-02
 -2.1983609e-01   4.7674991e-02
 -5.3535555e-02   4.9959280e-02
  2.3326494e-01   3.2825664e-02
 -2.0549339e-01   9.0556867e-02
  2.2736174e-01   5.2439187e-02
  1.0221479e-01   4.0971518e-02
  2.0071164e-01   4.1888870e-02
 -9.1828533e-02   3.8329322e-02
 -2.7388179e-01   7.1161419e-02
 -1.7666623e-02   7.1616091e-02
  2.9680157e-02   5.5971578e-02
  7.9261132e-02   4.4544578e-02
  1.4598751e-01   3.1422336e-02
 -4.9132451e-02   5.4607194e-02
 -2.1649870e-01   4.2286303e-02
 -1.7094807e-01   6.9415331e-02
  3.8753417e-01   4.0309992e-02
  4.5979550e-01   5.1391281e-02
  1.5068063e-02   6.1833199e-02
 -4.9333507e-01   2.9680304e-02
 -6.3595958e-02   7.1939483e-02
  3.9125988e-03   2.5285522e-02
 -3.6460030e-01   8.3040148e-02
 -2.5807539e-01   3.4484971e-02
  9.3522511e-02   6.7636482e-02
  1.2595241e-01   1.2352913e-01
 -2.6110992e-01   6.7570269e-02
 -4.1407593e-02   4.4502422e-02
  6.8217866e-02   5.8058761e-02
  1.1371887e-01   3.9721910e-02
  2.6104030e-01   3.8191438e-02
  1.8387871e-02   2.5431512e-02
  1.3101089e-01   5.8785796e-02
 -6.6338009e-03   5.6807969e-02
 -2.8800303e-01   8.0957413e-02
  4.4152611e-01   8.2815886e-02
 -2.2377603e-02   2.5391711e-02
  4.9113352e-02   4.3921333e-02
 -8.3881155e-02   8.8627540e-02
 -3.3542678e-01   9.1757640e-02
  8.3270483e-02   5.2666642e-02
  1.4969720e-01   9.6735917e-02
  4.2030975e-02   5.3045236e-02
  5.5249965e-01   8.3199382e-02
 -6.5572135e-02   6.9449425e-02
 -2.6277852e-01   2.6304841e-02
  6.7128010e-02   1.2034445e-01
  6.9509819e-02   5.7109997e-02
 -7.5980835e-02   6.1265957e-02
 -5.2401416e-02   2.9782217e-04
 -9.5979929e-02   1.9828994e-03
 -1.7048324e+00   2.4260217e-03
  1.0234051e+00   1.5963541e-02
 -1.1341966e-01   8.7192291e-03
 -2.4407881e-01   1.3495077e-01
  2.0791543e-01   2.6977060e-02
 -2.8779296e-02   3.7939563e-02
 -6.0468954e-01   1.5774431e-02
 -3.7101960e-01   3.5868812e-02
  2.3588281e-02   9.0798363e-02
 -9.3093596e-02   1.0327926e-02
  4.3509507e-01   3.3406664e-02
 -1.4424783e-01   1.2163681e-02
 -1.4804325e-01   4.1334480e-02
 -2.0316619e-02   8.0702931e-02
  8.9984506e-02   1.4778031e-01
  3.7872842e-01   9.7971074e-02
 -5.1494632e-03   1.7043356e-02
 -2.1806821e-02   2.4344746e-02
  1.8715733e-01   5.0924025e-02
  2.4912782e-02   8.2926735e-02
  2.0378243e-02   3.5146523e-02
  2.0721477e-02   6.7706704e-02
  1.2653017e+00   2.7181180e-02
 -5.3010952e-02   1.9891119e-02
 -9.6024752e-02   4.9909636e-02
 -7.2548152e-03   6.4689480e-02
 -8.8633247e-02   3.2625671e-02
  2.0175637e-01   4.1881677e-02
 -4.2891058e-01   5.8444263e-03
 -1.9003314e-01   2.5419373e-02
 -4.7603184e-03   3.7157360e-02
 -2.3006748e-02   2.6997916e-02
 -5.9134264e-02   4.8347849e-02
 -7.0002064e-02   7.9830065e-02
  4.1011505e-02   6.2992856e-02
 -1.0377078e-01   5.9713978e-02
  3.7935745e-02   1.5234927e-02
 -1.9172914e-03   2.2941671e-02
 -1.6595331e-01   5.1804274e-02
  2.2153157e-01   2.0274442e-02
 -9.4781891e-02   2.4897752e-02
  5.5598736e-02   5.1966790e-02
 -1.6427001e-01   6.3221864e-02
 -1.8090360e-01   6.8131112e-02
 -1.4682981e-01   1.6795693e-02
  1.0935360e-01   6.9166735e-02
  2.4864795e-02   3.6243971e-02
 -7.6429240e-02   5.0858472e-02
  1.9954541e-01   3.5997897e-02
 -3.8967291e-01   5.3444594e-02
  1.1786975e-01   6.3989714e-02
 -1.5084934e-02   7.6479375e-02
  1.9408710e-01   6.6809937e-02
  7.3519699e-02   3.9011262e-02
 -8.8175185e-02   5.4653402e-02
 -8.2700931e-02   8.9090943e-02
 -7.0173627e-01   1.0012004e-01
  8.7406248e-02   4.0670797e-02
 -1.6112860e-01   5.8461744e-02
  1.4052060e-01   2.0023452e-02
 -3.3918433e-02   4.2491309e-02
  1.9032367e-01   2.8635668e-02
  1.8789552e-01   2.0285932e-02
 -5.6495439e-02   6.3992240e-02
  1.7960422e-01   1.6511675e-02
 -9.1427624e-02   5.7167806e-02
 -9.4709419e-02   4.8803702e-02
 -5.4426509e-01   8.8100722e-03
 -9.8739311e-02   5.3054523e-02
 -2.7615616e-02   2.7902884e-02
 -5.2731275e-03   1.8312585e-02
 -7.7471271e-02   5.9341483e-02
 -5.8060485e-01   2.0313293e-02
  2.6241921e-02   2.2591317e-02
  1.9578077e-01   4.7636010e-02
 -4.0416759e-02   5.1557891e-02
 -1.1354351e-02   4.6490137e-03
 -1.0221167e+00   2.0156654e-03
 -2.0091900e-01   4.6308614e-02
  5.6474697e-02   2.1538602e-02
  3.3560818e-01   2.5917776e-03
 -1.6595908e-01   1.3556646e-02
 -2.1380295e-01   1.6739530e-02
  3.0099964e-01   3.3056926e-02
  1.5282635e-01   3.4935124e-02
 -8.0481999e-02   5.2348383e-02
  1.9313477e-01   2.6043425e-03
  1.1983958e-01   2.3783680e-02
  1.8776052e-01   2.7121015e-02
  2.4926125e-03   4.5170034e-03
  9.2786163e-02   5.5172503e-02
  3.4324980e-01   6.6941930e-03
  1.2502418e-01   1.2966407e-02
 -6.7149110e-02   1.2471204e-02
  2.1956552e-02   1.0967512e-02