  9.0982042e-02   4.3109860e-04
 -2.3316036e-01   8.7958714e-04
 -1.0495491e+00   5.2207179e-04
  2.3588979e-01   5.0990656e-04
  7.0632803e-01   1.1118262e-03
  4.2431670e-01   3.3471750e-03
  9.6071614e-03   6.3718227e-03
  3.1059733e-02   7.1669910e-03
  3.6842793e-02   2.4569933e-03
  4.8621538e-01   3.7258666e-03
  5.6294000e-01   6.5561989e-03
  2.0574296e-02   1.4844959e-02
  7.2569752e-01   4.1366778e-03
  1.5770876e-01   7.0676208e-03
  4.0595594e-01   1.6427977e-03
 -1.0280338e-01   4.4090273e-03
 -5.6954272e-02   2.2649443e-02
  4.1157955e-01   7.6232548e-04
  1.9194555e-01   6.5498832e-03
  1.3394579e+00   2.1492869e-03
  2.2574041e-02   3.5274001e-03
 -7.5865760e-02   1.2214821e-02
  2.2913713e-03   3.4198654e-03
  2.3005745e-01   4.8685395e-03
  1.8899766e-01   4.7470522e-03
 -1.1716586e-02   1.0002606e-02
  7.3794447e-02   2.9849824e-02
 -3.7520926e-02   2.2659523e-02
 -7.6202503e-03   1.5891496e-02
 -1.1725904e-01   2.9442998e-02
  3.0132023e-01   7.0639448e-03
 -7.2175111e-03   8.9781545e-03
 -3.7390836e-02   1.0862982e-02
  4.5090166e-01   8.6811325e-03
 -7.6988451e-03   1.4471013e-02
 -7.5262967e-03   5.6042224e-03
  6.6880574e-03   2.1724908e-02
  3.6099032e-02   1.1404050e-02
  5.0857197e-03   2.1391388e-02
 -1.1193050e-02   3.4444951e-02
  4.5466777e-02   2.1868953e-02
  3.2903664e-02   4.2022031e-02
  1.2606582e-02   1.1372830e-02
 -5.9881359e-02   3.7120968e-02
 -9.1933673e-03   1.3233441e-02
 -4.3111112e-02   2.8211661e-02
 -7.9461318e-03   2.1742791e-02
 -1.1562051e-01   1.8153775e-02
 -7.8716695e-02   2.1690497e-02
  1.1046448e-01   2.0140987e-02
 -1.7086038e-01   2.0876737e-02
  1.1918650e-01   2.6271112e-02
  5.6450270e-02   2.0620843e-02
 -3.5808805e-02   9.6044810e-03
 -2.5722714e-02   3.7453722e-02
 -3.0006286e-02   2.2527995e-02
 -2.4430824e-03   1.5422364e-02
  1.2099202e-01   2.4261577e-02
 -3.4442719e-02   8.1884144e-03
  1.0739080e-02   2.4025749e-02
 -2.5155824e-02   2.5584444e-03
 -1.3171424e+00   5.3688511e-04
 -3.8405132e-01   2.1580700e-03
  2.0550729e-01   2.1683804e-03
  1.3538428e-01   8.3455211e-04
 -7.9069650e-03   4.1210577e-03
  4.6181146e-02   1.5913852e-02
 -2.6133928e-02   8.8880192e-03
  8.8193845e-03   9.3139391e-03
  5.6900048e-01   4.7489530e-03
  1.8313682e-02   1.0774711e-02
  2.9088233e-02   1.3691049e-02
  7.0303515e-02   1.2594741e-02
 -1.6980130e-02   8.1894994e-03
  1.0206551e-01   5.6726164e-03
  5.4514036e-03   1.1023968e-02
  4.5681275e-02   1.6493177e-02
  3.5708223e-02   6.7232912e-03
  4.9913085e-01   6.3446527e-03
  8.0174036e-02   5.8980058e-03
  4.7786031e-02   1.1251233e-02
 -4.2216998e-02   2.8889302e-02
  4.0568500e-03   1.9965790e-02
  5.9677437e-02   2.1505270e-02
  1.8937379e-01   1.2383507e-02
  3.1256758e-02   1.2730920e-02
 -3.2745064e-03   2.4956565e-02
 -1.3811006e-02   3.4965552e-02
  1.8076014e-02   1.6424999e-02
 -2.6059931e-02   2.6138065e-02
 -3.9480920e-03   1.0035059e-02
  9.2760272e-02   2.9975905e-03
  3.5712820e-02   4.3276590e-03
 -3.2463491e-02   1.5209704e-02
 -1.0472525e-01   2.4249444e-03
 -1.4474753e-02   1.6146272e-02
  8.2564794e-02   3.0398715e-02
  4.8540205e-02   1.0462387e-02
 -8.5846543e-02   1.0870943e-02
 -6.7703143e-02   5.6008641e-03
  1.3855112e-03   1.3215148e-02
 -5.5931643e-02   2.6760813e-02
  3.3353351e-02   5.6570834e-03
  1.2502302e-01   1.6706539e-02
 -8.7713851e-03   1.0657212e-02
  3.0002784e-02   6.6237291e-03
 -6.7482375e-02   3.4695107e-02
 -1.4448489e-01   5.9891632e-03
  9.8215938e-03   1.1232415e-02
 -6.3782468e-02   8.5768122e-03
  7.0486078e-03   2.1077547e-02
 -4.4205822e-03   3.1956129e-02
 -7.1430150e-03   3.0819083e-02
  4.2708851e-02   3.0687522e-02
  1.8920474e-02   1.7944295e-02
 -1.6944474e-02   2.6809715e-02
 -3.5129629e-02   2.2128273e-02
 -2.5582248e-02   1.8005870e-02
  5.7960004e-02   2.7797025e-02
  2.1789110e-01   1.8121710e-02
  8.8393286e-02   2.2702282e-02
  3.5984401e-02   1.8113015e-02
 -7.7984505e-04   9.0541365e-03
 -1.9418277e-02   1.8401375e-02
  2.4332618e-02   1.6586240e-02
 -6.7355051e-03   1.4570369e-02
  1.0300023e-02   1.4065684e-02
  3.7685916e-02   1.3779753e-02
  5.9870452e-02   2.2313885e-02
 -1.4150943e-01   1.0425217e-02
 -1.3424203e-02   1.5732165e-02
 -1.9441057e-02   1.4440496e-02
  6.0938813e-02   2.1685710e-02
  4.2914590e-03   1.1343167e-02
 -2.4049137e-02   2.0457461e-02
  2.4104452e-02   2.6907274e-02
 -1.7455205e-01   5.3762333e-03
 -1.0215867e-02   2.0732759e-02
 -3.8049999e-03   1.5531454e-02
 -7.0703756e-03   2.3100281e-02
  3.1635500e-02   2.3687249e-02
 -5.0463453e-02   9.3358206e-03
 -3.3622230e-03   1.4255680e-02
 -7.9447493e-02   2.1779509e-02
 -1.0621563e-01   1.8620694e-02
  9.4032884e-02   1.6939539e-02
  3.0183941e-02   3.4810428e-02
 -1.0823599e-01   1.3306228e-02
 -2.3358528e-02   2.4840236e-02
 -4.0588854e-03   1.1816817e-02
 -5.5732138e-02   1.1946262e-02
  7.2559211e-03   1.5265277e-02
 -9.4252210e-03   2.0040622e-02
 -3.1799152e-02   2.7145989e-02
 -5.8014654e-03   2.0966664e-02
 -3.3077572e-02   1.6094884e-02
 -1.1340942e-02   3.1738803e-02
 -6.0958840e-02   2.4925278e-02
 -1.8053856e-02   1.4440720e-02
  3.7324786e-02   1.8721506e-02
  2.6972441e-02   2.5085932e-02
  1.5171243e-02   2.1261040e-02
  3.3698928e-02   2.5941612e-02
 -6.5024677e-03   2.2074845e-02
 -3.6726049e-03   2.5161717e-02
  1.3494259e-03   1.7009310e-02
 -5.4771556e-03   2.6835466e-02
  5.2829746e-02   3.5127070e-02
  1.2580757e-01   6.7610014e-03
  1.1106005e-02   2.5005912e-02
 -3.4248278e-02   2.0976881e-02
 -2.8425688e-02   2.5594944e-02
  1.4315385e-02   1.1714926e-02
  6.3480347e-02   1.8725172e-02
 -2.3305276e-02   2.7528932e-02
  2.2084631e-02   3.7415221e-02
 -7.0443824e-02   3.8893029e-02
 -2.9995693e-02   4.8224054e-02
 -1.4441331e-01   1.8566368e-02
  3.8650107e-02   2.8972622e-02
 -1.0844577e-01   4.2046425e-03
 -1.0610912e+00   3.8348665e-03
 -8.1061490e-02   3.1098612e-03
  2.5457260e-01   7.3526632e-03
 -5.7092529e-02   3.1419720e-03
 -1.4219457e-02   1.1599420e-02
 -9.2939734e-03   8.4405411e-03
  6.1784990e-02   2.0237938e-02
 -1.2908556e-01   2.4158539e-02
  7.6291136e-02   6.1972910e-03
 -3.4848503e-03   1.1565394e-02
 -3.5259803e-03   2.9049531e-02
  1.1516454e-01   1.0192879e-02
  6.5129824e-02   3.1893060e-02
  1.3507586e-02   2.5238443e-02
 -1.9731158e-02   9.1774398e-03
 -6.9847400e-03   8.0094421e-03
 -2.1080161e-02   1.0908598e-02
  1.1129215e-01   1.3903343e-02
  4.6215799e-02   1.0685807e-02
 -2.3380159e-03   6.5670796e-03
 -1.7226420e-02   3.7059426e-02
  1.4660127e-01   4.2916727e-03
 -2.6064454e-02   1.1508254e-02
  2.5745435e-03   2.3502221e-02
 -7.3456034e-02   3.4579132e-02
 -1.2033643e-02   2.5938073e-02
 -1.3203652e-01   3.7078343e-02
 -2.8935495e-01   1.3385200e-03
 -2.5651166e-02   2.7982706e-02
  2.9898390e-01   8.2557014e-04
  2.4618620e-01   1.0794983e-03
  1.6181926e+00   1.5838813e-03
 -5.4630268e-01   2.2394238e-03
 -1.4371823e+00   6.9757906e-04
 -6.2935305e-01   7.4474080e-03
  2.7538408e-02   3.6844533e-02
 -4.1610628e-01   1.3862764e-02
 -1.3773303e-01   9.8234415e-03
 -2.3847431e-01   4.6510706e-03
  4.9739689e-02   1.7028490e-02
  1.0090754e-03   1.6844463e-02
  2.4890547e-01   1.3029029e-02
  3.1699795e-02   1.5120412e-02
 -1.7756734e-02   9.8415194e-03
 -6.4127289e-02   8.4660240e-03
 -1.4135426e-02   2.4873424e-02
 -7.4328527e-02   3.6518897e-03
 -3.5253972e-02   9.6397325e-03
 -1.3044154e-02   4.5488207e-03
  6.0978693e-01   1.9940784e-02
 -9.7936261e-03   5.7908628e-02
  2.5927464e-02   1.9585997e-02
 -1.1510349e-01   5.8252579e-03
  8.7237298e-02   4.4206874e-03
  1.3130111e-01   2.7009396e-02
 -4.7966046e-03   3.6221117e-02
 -2.7030315e-03   2.5722949e-02
 -1.2302266e-01   1.7411858e-02
  1.1790423e-02   1.6278185e-02
  1.2233032e-01   1.6132994e-02
 -1.1734158e-01   1.2262425e-02
  4.4153679e-02   1.1101009e-02
 -2.1209830e-02   1.5741151e-02
  9.3480960e-02   1.0770853e-02
  1.7803187e-02   1.8609770e-02
 -4.6153925e-03   1.5851133e-02
 -6.7802137e-03   1.0562777e-02
 -2.9615482e-02   1.5841743e-02
 -2.2473526e-01   2.2240859e-02
 -4.1627720e-02   1.2897464e-02
  2.6930260e-02   2.3651563e-02
  4.6134263e-02   2.5749901e-02
  2.6310952e-02   5.2160531e-02
 -1.0894489e-01   1.5406981e-02
  3.8404133e-02   1.9484676e-02
 -1.2889081e-01   1.2864813e-02
 -6.5779937e-03   1.3278236e-02
 -1.0774483e-01   1.0165120e-02
 -3.7686128e-02   1.4516337e-02
  1.6015982e-02   9.5178261e-03
 -7.6730408e-02   1.4372189e-02
  1.3370629e-02   2.3642350e-02
  2.0880701e-02   2.5009513e-02
 -2.1598982e-02   1.5874727e-02
 -2.0446941e-02   1.9168936e-02
 -3.8953453e-02   2.1029837e-02
 -9.8157562e-03   1.3208582e-02
  3.7098563e-01   7.1132532e-03
 -1.2625842e-01   3.4182172e-02
 -5.6822162e-02   2.3866709e-02
  2.4066038e-02   3.5928123e-02
  1.9759547e-02   2.6489286e-02
  9.8775811e-03   1.3878234e-02
 -2.8490439e-02   1.9038493e-02
 -3.8252643e-03   1.9564522e-02
 -7.7869162e-02   3.6856368e-02
  6.0095243e-02   2.3152180e-02
  4.6327189e-02   2.4567690e-02
 -5.8072295e-02   2.2363471e-02
 -2.4979362e-02   2.6014866e-02
 -5.8506779e-02   2.2296065e-02
  2.6346628e-02   1.0683140e-02
 -1.2702379e-01   2.2802131e-02
  2.0863552e-02   5.1099539e-02
 -1.5596815e-02   2.8775305e-02
  3.7231419e-02   2.6036749e-02
  8.9328103e-02   2.5453879e-02
 -2.1934394e-02   3.4063630e-02
  3.7469435e-02   1.3492861e-02
 -9.5563196e-02   4.3350939e-02
 -7.1503483e-02   3.1936545e-02
  1.0634806e-01   2.5938289e-02
 -3.4261197e-02   3.1688876e-02
 -6.1773662e-03   3.4652434e-02
 -2.4689605e-02   8.9167533e-03
  1.5756343e-01   2.3847336e-02
  4.7128268e-02   2.5417514e-02
  9.9908467e-04   3.5556693e-02
  1.1185188e-02   2.1008532e-02
  6.0721850e-03   2.1225967e-02
 -6.4032666e-02   2.5911247e-02
  2.2202618e-03   2.0217001e-02
  4.9238671e-02   1.6054360e-02
 -3.4814060e-01   3.1675645e-03
 -4.2871684e-02   1.8697979e-02
  8.4269056e-03   3.3808447e-02
  2.3871476e-02   1.7672824e-02
 -7.8756109e-02   3.7996054e-02
  5.9893381e-02   2.9368162e-02
  3.4395229e-02   1.9518433e-02
 -7.6245591e-02   2.3441529e-02
 -1.8050801e-02   4.5902353e-02
 -4.3465909e-02   3.9186306e-02
  7.5278535e-02   2.5034476e-02
  1.0050396e-01   1.8656265e-02
 -4.4718668e-02   1.2055108e-02
  7.0249557e-02   2.1257877e-02
  2.6062155e-01   1.2167370e-02
  6.1880451e-02   2.2992974e-02
  3.4869611e-02   3.0188650e-02
  9.6321739e-03   4.7493234e-02
  2.8411699e-02   1.3931357e-02
  1.2443990e-02   1.7736344e-02
  1.7090730e-02   2.2727875e-02
  2.6552901e-02   2.6464008e-02
  5.1499560e-02   2.0741878e-02
  8.7012477e-02   3.4765318e-02
 -1.7163176e-02   1.9274855e-02
 -7.8354225e-02   1.3448562e-02
  1.4527190e-01   4.3841526e-03
  6.2509590e-01   4.1399184e-03
 -6.7667536e-02   5.0792429e-03
 -8.9645702e-03   2.8436328e-03
  1.8716243e-01   4.3723476e-03
  6.1854577e-01   4.5678420e-03
  2.3941686e-02   7.8686811e-03
  3.8438827e-02   8.1395488e-03
  1.0911544e-02   1.5925111e-02
  1.0292710e-02   5.5461247e-03
 -1.6324212e-01   1.1751925e-02
  7.8390650e-03   1.8351601e-02
 -2.3323613e-01   1.3060639e-02
 -4.4596050e-02   1.2195240e-02
 -6.8602711e-02   1.4110933e-02
 -1.4949106e-02   8.1819296e-03
  6.2877625e-02   2.7796665e-02
  7.3992394e-02   1.7566951e-02
 -8.7384105e-02   2.4517646e-02
 -6.4292073e-02   1.0419138e-02
 -1.8234333e-02   1.8708687e-02
  1.1571077e-01   1.9449729e-02
  7.5707689e-02   3.2078795e-02
  3.6380842e-02   1.4288637e-02
 -3.4208324e-02   1.0465603e-02
  4.0301464e-02   2.0874711e-02
  1.3184079e-02   1.8111266e-02
  2.8605571e-02   2.4340611e-02
  4.6709638e-02   2.4247142e-02
 -2.8573103e-02   1.6045928e-02
 -8.0681324e-02   1.5826730e-02
  9.6339509e-02   8.3313892e-03
 -3.9372813e-02   1.9989675e-02
  3.2326162e-02   1.2545957e-02
 -5.1457759e-02   1.1345631e-02
  1.0592140e-01   1.1393213e-02
  6.4973004e-02   5.6123644e-02
  3.1749077e-02   1.9403618e-02
 -1.2417768e-02   1.7887020e-02
 -1.2748338e-02   1.8870758e-02
  1.4927864e-02   2.7414136e-02
 -3.6042031e-02   2.4632305e-02
  2.2716779e-02   3.1125676e-02
  5.8351886e-02   2.4434771e-02
  2.5748750e-02   1.6052848e-02
  8.7110754e-03   1.8929735e-02
 -5.3192478e-02   1.4751419e-02
 -1.1208855e-01   5.4358239e-03
 -4.9803905e-02   2.6593154e-02
  5.7904735e-02   1.9367067e-02
 -1.6782098e-01   3.9538052e-02
  4.3667514e-02   2.6505513e-02
 -6.0045209e-02   1.4975235e-02
 -8.7878957e-02   2.1581694e-02
  1.0414871e-02   1.6545743e-02
 -1.6573591e-02   4.2086545e-02
  1.4187080e-01   9.1921268e-03
  1.2179825e-01   4.1390281e-02
 -6.6032171e-02   1.5417012e-02
  1.3879645e-01   3.0270603e-02
  5.6979712e-02   1.8568149e-02
 -8.8280290e-02   2.1259928e-02
  4.1636527e-02   1.4148513e-02
 -2.9130118e-02   1.4924971e-02
 -9.0935570e-04   1.7977241e-02
 -7.3728210e-04   7.6155141e-03
  2.7260680e-02   2.4087654e-02
 -2.6899174e-02   2.0135107e-02
 -7.8717276e-02   2.6013963e-02
 -1.0993100e-01   2.0941079e-02
  7.2710909e-02   1.9865621e-02
 -4.6208464e-02   3.6969647e-02
  9.4913226e-03   3.1385832e-02
 -3.0356811e-02   2.3044851e-02
  1.5959401e-01   2.9969815e-02
  4.6539698e-02   2.7607145e-02
 -7.1758598e-02   2.4593184e-02
  7.8167848e-02   2.6175942e-02
  3.0907588e-03   1.3698542e-02
 -2.0968812e-02   2.9347302e-02
  3.4571618e-02   2.4603276e-02
 -1.1142676e-01   2.5771083e-03
 -2.0393867e-02   1.9093111e-02
 -1.1388455e-01   3.2186128e-02
  5.7568308e-02   3.3353135e-02
 -1.1711197e-01   2.7474925e-02
 -3.2672822e-02   1.8482691e-02
 -6.4480051e-02   3.2628775e-02
 -8.9458846e-02   2.9002568e-02
  1.0965742e-02   2.2999093e-02
 -4.3694469e-01   3.9832960e-03
  3.5599995e-02   5.0069843e-03
  4.0754501e-02   4.2253379e-03
  8.7937228e-03   7.6735793e-03
 -6.5980785e-02   3.7805783e-03
 -6.7091830e-02   8.1452224e-03
 -5.9411093e-03   2.1187855e-02
 -1.2659630e-01   7.7135083e-03
 -1.3112801e-02   9.3507729e-03
 -1.0008506e-01   8.7922318e-03
  1.2676801e-02   7.4320422e-03
  1.0300662e-01   2.2304887e-02
  3.2399889e-02   1.1563163e-02
  9.6763492e-02   4.8264186e-03
  2.7839479e-01   1.1987220e-02
  8.3600961e-02   5.3789280e-03
 -4.4155363e-02   1.7230203e-02
  6.6809110e-02   5.4418440e-03
  1.8083796e-01   6.7358967e-03
 -6.0161445e-02   1.1301751e-02
  2.2222631e-02   6.9844667e-03
  2.0664085e-02   2.4641823e-02
 -2.2293333e-02   2.3084775e-02
 -2.3954825e-02   1.8507754e-02
  1.1229044e-01   6.3323206e-03
  1.5167636e-02   1.7720789e-02
 -1.4666869e-02   3.7579458e-02
  1.2081483e-02   3.0019278e-02
 -4.5797326e-02   1.9674132e-02
  2.1624309e-03   1.7788859e-02
  2.7608786e-02   1.1950652e-02
 -6.4418487e-02   9.6728131e-03
 -8.0271795e-02   2.7937587e-02
 -2.1095214e-02   3.6154352e-02
  7.2361648e-02   1.7794145e-02
 -2.2566564e-02   1.0768423e-02
 -7.1635954e-02   4.4336561e-02
  4.1387998e-03   2.2719523e-02
 -1.5390574e-02   9.3073966e-03
 -1.9469641e-02   1.0016672e-02
 -1.4463994e-01   3.8630251e-02
  1.5736587e-01   2.0935141e-02
 -3.3070128e-02   1.8339626e-02
 -6.8673618e-02   4.2769391e-02
  3.2890078e-02   1.4699656e-02
  3.4091573e-02   2.2810679e-02
  9.4881002e-03   1.4401484e-02
  1.4008182e-01   1.9053809e-02
 -1.3890654e-02   1.8715180e-02
 -4.0798910e-02   2.7083335e-02
 -1.6865171e-03   1.5273714e-02
  6.2582992e-02   2.7614901e-02
  1.4908411e-01   2.0629764e-02
 -4.9086351e-02   1.0069369e-02
 -1.4687872e-01   1.2650924e-02
  3.1128684e-02   1.9739712e-02
 -8.4109224e-02   1.4977280e-02
  3.2489378e-02   4.0576395e-02
  1.3050446e-02   7.8063011e-03
  1.1882061e-02   2.8696988e-02
  3.5221733e-02   9.2944866e-03
 -4.1420590e-02   4.6813213e-03
 -7.9971761e-04   7.3235580e-03
 -1.3211688e-02   2.1006078e-02
 -6.6497028e-02   1.4832942e-02
 -4.1011265e-03   3.1756207e-02
  9.2404939e-02   1.4768966e-02
 -5.0924547e-02   2.6102616e-02
 -2.0248553e-02   1.5598736e-02
  1.3327612e-01   1.3132763e-02
  1.7018865e-01   1.0363991e-02
 -9.5049180e-02   5.1473668e-03
  5.6265645e-02   7.1853804e-03
 -2.7026165e-02   1.9844854e-02
 -3.4430541e-02   2.0157250e-02
 -1.4220937e-01   1.9400353e-02
 -4.7695126e-02   1.1867802e-02
 -5.2336477e-02   2.4746237e-02
  2.7826561e-03   1.2352860e-02
  4.2787340e-02   1.4185661e-02
 -2.1962030e-04   1.1290411e-02
  1.9617889e-02   2.9939814e-02
 -9.7081065e-05   1.2861282e-02
 -5.4561991e-02   2.7398326e-02
  3.2252599e-02   1.9214736e-02
  7.9891488e-02   7.9558482e-03
  1.1932447e-01   2.4216775e-02
 -4.1081235e-02   2.5852537e-02
  3.5087254e-02   3.2222576e-02
  2.0898182e-02   2.8984597e-02
  6.4550161e-02   5.7649827e-03
 -5.1683813e-02   4.2971633e-03
  1.0218388e-01   1.4015538e-02
 -8.3559807e-03   5.9973514e-03
 -3.4250677e-02   3.8631428e-03
 -1.0539647e-01   1.1218859e-02
 -5.3477142e-02   2.3958810e-02
  1.0556582e-01   7.6287440e-03
 -9.3045994e-05   7.9370523e-03
 -5.3017458e-04   1.0991748e-02
 -1.7163804e-02   2.0889269e-02
 -7.4732201e-03   3.1569853e-02
 -7.0170753e-02   2.8958278e-02
 -5.2821048e-02   1.0740413e-02
  3.4723449e-02   2.0401735e-02
  1.4048154e-02   2.5421204e-02
  7.7378660e-02   9.8005738e-03
  2.3937924e-02   1.1970454e-02
  3.8325902e-02   1.4023107e-02
 -1.6343985e-01   2.4162328e-02
 -2.2284590e-02   1.0486602e-02
  1.8719107e-01   4.5528047e-02
  8.9152813e-02   1.0134630e-02
  4.9818832e-02   2.1217151e-02
  9.4502307e-03   2.8199904e-02
  5.6413848e-02   3.3762801e-02
 -9.3041897e-02   3.3864882e-02
 -3.1311754e-02   5.1060501e-02
 -1.8277027e-02   2.9316580e-02
  1.0692343e-01   2.6956998e-02
  1.7577945e-01   1.3008453e-03
 -2.3114720e-01   1.7557847e-03
  1.4720838e-01   6.6460535e-04
 -7.5676620e-01   1.2962249e-03
 -1.9939753e-01   1.5886757e-03
 -7.3284283e-02   6.7135915e-03
 -5.2358378e-02   1.7928855e-02
 -4.5219988e-02   5.9407363e-03
  9.7975079e-03   8.5663525e-03
  2.6344821e-02   3.0060615e-03
 -3.8699482e-03   1.1447258e-02
 -1.0412670e-01   2.7150450e-02
 -1.3421768e-01   6.9503132e-03
 -2.3678088e-01   7.5852429e-03
 -4.4452819e-01   7.9532648e-03
  1.7370592e-01   5.4710358e-03
  3.9528664e-03   1.6458934e-02
  7.0465324e-03   1.7074581e-03
 -6.5387905e-02   6.4663035e-03
  8.7009184e-02   3.6602190e-03
 -1.9943871e-01   9.2776502e-03
 -2.8975203e-03   2.9826842e-02
  1.3609941e-01   5.3755906e-03
  7.0416443e-02   1.6925709e-02
 -8.6107284e-02   5.6065917e-03
  1.0404999e-02   1.9610798e-02
  2.3163693e-02   1.7059594e-02
  2.4169246e-03   2.1441782e-02
  2.2184491e-02   1.2920317e-02
  1.4461185e-01   7.8379856e-03
 -5.8828157e-01   7.0976247e-03
  1.2666458e-02   3.6475621e-03
 -1.0968640e-01   1.8761774e-03
  4.6486628e-01   2.6640443e-03
  1.0683717e-01   5.1249806e-03
  4.4229981e-01   1.0057727e-02
 -8.5308040e-03   9.2440769e-03
 -1.0579552e-03   1.0890023e-02
  1.2611055e-01   7.3588220e-03
 -1.0003804e-03   5.7441266e-03
 -1.7496258e-01   1.2587197e-02
 -8.1884839e-02   8.7934630e-03
 -1.6776379e-02   1.1292830e-02
 -3.2278959e-02   9.5394831e-03
 -2.4327943e-02   1.9813064e-03
  1.2992404e-01   5.5895229e-03
 -8.0846131e-02   3.7794605e-02
  1.8357286e-01   6.6793491e-03
 -3.6782537e-02   1.4587544e-02
  1.4223753e-01   4.1616866e-03
 -6.5146916e-02   1.1675377e-02
  5.6806438e-02   1.6888252e-02
 -1.5644582e-02   1.0286542e-02
  1.0919367e-01   1.8240429e-02
  1.9914899e-02   1.1438630e-02
  1.1873386e-01   1.3296877e-02
  1.3758071e-02   3.3673074e-02
  6.9474265e-02   1.1423165e-02
 -5.5975754e-02   1.1617300e-02
 -4.5586497e-02   7.7835545e-03
  7.8007922e-02   1.4504652e-02
 -9.2991871e-01   6.3231229e-03
 -5.1085573e-02   5.4196483e-03
  1.3821439e-01   3.6820681e-03
 -9.4287068e-02   5.8520720e-03
 -1.1474258e-02   1.4567086e-02
 -1.4455744e-02   3.4633160e-02
 -1.5494809e-02   2.6873017e-02
 -5.0272267e-02   2.4998408e-02
  5.6006767e-02   1.1193436e-02
  7.2015181e-02   1.4552029e-02
  1.2078877e-02   3.9858244e-02
 -1.8931901e-02   3.1310517e-02
 -3.7011731e-02   1.2213666e-02
 -2.6167650e-02   2.1157399e-02
 -6.8985522e-03   1.4242359e-02
 -2.3145542e-02   5.5273633e-02
 -2.2295734e-02   1.0627096e-02
  1.3968356e-02   1.0640777e-02
 -2.1550130e-02   1.4545563e-02
 -1.3665581e-02   2.5038596e-02
 -1.0962055e-01   2.7234543e-02
  1.9197412e-02   2.3302184e-02
  7.1621038e-02   2.3514930e-02
  2.3645798e-02   1.7539643e-02
 -4.7723092e-03   2.0753536e-02
  7.0975507e-03   1.7617965e-02
 -7.5579043e-03   1.4238022e-02
  1.2775081e-03   5.3863436e-02
 -3.0865056e-02   2.1418326e-02
 -5.9597868e-02   1.1384055e-03
  3.3977637e-01   8.3798347e-03
 -4.0598135e-02   1.1887617e-02
 -2.1784423e-01   8.9397365e-03
  1.3879153e-01   6.2607112e-03
  3.9005537e-02   2.8969668e-02
  1.4868443e-02   3.3023387e-02
  8.5842773e-02   1.9690163e-02
 -7.9185635e-02   2.1998215e-02
  1.3532361e-01   7.5862794e-03
  3.7381198e-02   2.7723195e-02
 -6.3971691e-02   2.2818569e-02
  1.5253557e-01   2.7926203e-02
 -2.6680270e-02   2.4756739e-02
 -2.2691239e-02   1.5619757e-02
 -1.0241780e-01   4.6521504e-03
 -4.9859632e-02   1.7720187e-02
 -1.6878603e-02   1.1890370e-02
 -2.5887519e-02   1.7088043e-02
 -1.0629708e-01   8.9788474e-03
  1.5563594e-02   2.9382942e-02
  1.3162775e-01   1.5108587e-02
 -1.3887879e-01   2.1479400e-02
 -9.7197928e-03   2.3438079e-02
  3.5356220e-02   7.1206177e-03
  1.9395064e-01   1.3047927e-02
  2.9557701e-03   7.9009179e-03
  1.9542407e-02   2.6173165e-02
  1.2596864e-01   1.2329015e-02
  3.5040002e-02   1.6039761e-02
 -4.7177114e-02   1.4139511e-02
 -9.1612227e-02   1.1872983e-02
 -1.8199357e-01   8.3181942e-03
  1.8273078e-02   2.5153663e-02
 -3.7445351e-02   1.0528365e-02
  2.9324861e-02   1.6030448e-02
 -2.9658083e-02   3.0302929e-02
 -1.4064173e-02   1.5038545e-02
 -1.6877778e-02   2.2254072e-02
 -2.8216470e-02   2.6490318e-02
  3.8714982e-03   2.1655511e-02
  5.8997430e-02   1.7207080e-02
 -2.8006451e-03   1.7339289e-02
 -1.5418564e-01   3.0557547e-02
  5.0710076e-03   3.1497214e-02
 -1.5672439e-01   1.1152429e-02
 -4.6845049e-02   2.0364735e-02
 -2.1482289e-02   1.6395712e-02
 -1.4534316e-02   2.4881613e-02
  2.4941962e-03   1.4168147e-02
 -5.0048508e-02   3.0657956e-02
 -1.1938296e-01   9.7684795e-03
  1.5707292e-01   2.9959092e-02
 -9.3327668e-03   3.2867625e-02
 -1.8100254e-02   2.3826778e-02
  9.5679522e-02   1.3971296e-02
 -2.8174503e-02   1.7261481e-02
  5.5651008e-03   3.3618599e-02
 -3.1941775e-02   1.8470919e-02
  1.1224826e-03   1.7123763e-02
 -2.3695251e-02   3.0234079e-03
  3.0957904e-01   1.4905327e-03
  9.7703880e-01   3.1948667e-03
 -4.3500996e-01   4.5888061e-03
  6.7931175e-01   1.1901309e-03
 -4.1347593e-01   4.1131913e-03
 -9.0218233e-03   1.2194569e-02
  5.2446960e-03   3.8989475e-03
 -2.0435458e-02   9.4588697e-03
  2.0553153e-02   5.7615079e-03
 -3.3937789e-02   9.7487187e-03
  5.3928047e-03   2.5794990e-02
 -6.5660872e-02   3.9929580e-03
 -3.3131188e-01   8.7931305e-03
 -1.8542039e-01   8.1022335e-03
  2.5937974e-01   1.7256683e-03
 -3.2540228e-02   2.1239150e-02
  1.9420426e-01   1.3764589e-03
  1.8356091e-01   6.1653689e-03
  1.3746122e+00   1.8837943e-03
 -1.5119112e-01   4.2080036e-03
  4.6675537e-02   1.0744005e-02
  5.5239916e-01   1.3048718e-02
  3.6471564e-01   1.0614689e-02
  4.8835315e-02   7.0414357e-03
  2.3845298e-02   1.5772272e-02
 -4.8234751e-03   2.8113550e-02
 -3.8010024e-02   2.8922198e-02
 -9.3249455e-03   1.6915681e-02
  4.8185132e-02   1.1480290e-02
  9.9778501e-03   1.2073503e-02
  4.5247145e-02   4.1882177e-03
  4.8394937e-02   4.9100672e-03
 -5.2044338e-01   3.4690443e-03
  3.2341756e-02   6.0032937e-03
 -2.7365474e-02   8.4402673e-03
 -9.2341006e-02   2.5673855e-02
  3.0174848e-02   1.6646802e-02
  7.6848408e-03   8.7820720e-03
  4.7753030e-03   1.1966403e-02
  5.0281242e-02   1.8020095e-02
  4.5469396e-02   3.3637695e-02
 -1.1272036e-01   1.1786229e-02
 -1.4815959e-01   1.7031960e-02
  7.3094200e-03   2.0556159e-02
  9.1586486e-02   1.5483115e-02
 -4.4131465e-02   1.2856583e-02
 -1.5634494e-02   5.1482385e-03
  1.8314107e-01   1.8613638e-02
  1.4176688e-01   1.1042290e-02
 -2.3540927e-03   1.0523147e-02
 -2.5206572e-01   1.8964878e-03
  6.5457508e-02   2.3537930e-02
  2.5840862e-02   1.3011798e-02
  2.7701443e-02   2.5537416e-02
 -2.3447183e-01   1.3115681e-02
 -3.2407548e-02   3.0022644e-02
  1.8375007e-02   1.4878887e-02
  1.2663229e-02   9.2400005e-03
  3.4525201e-02   3.4443155e-02
 -3.0808732e-02   5.2364138e-03
 -4.2731252e-02   8.8445656e-03
 -8.2856946e-02   3.7509757e-03
 -2.1224865e-01   1.0132309e-02
  2.2204600e-02   7.4675279e-03
  8.7899804e-02   2.8960563e-02
  5.1068559e-02   3.5230160e-02
  4.9451258e-02   8.7570772e-03
 -5.1539786e-02   1.3078150e-02
 -4.6253271e-02   1.1377390e-02
 -1.4791409e-02   2.2010066e-02
  1.5134957e-02   2.6402261e-02
  4.5466140e-02   1.4385300e-02
  3.5076188e-03   3.0039227e-02
  7.5869575e-02   9.6868053e-03
 -3.6949895e-02   3.4171112e-02
 -3.7885841e-02   3.9025519e-02
 -8.1659473e-02   1.5980028e-02
  2.8097689e-02   2.1652563e-02
 -2.3792421e-02   1.1866139e-02
  4.8090704e-03   1.9977126e-02
  8.0288269e-02   1.0637621e-02
 -5.1511399e-02   1.6844530e-02
 -5.1395264e-02   3.0063806e-02
 -1.2524996e-02   2.8522713e-02
 -5.6499105e-02   2.7756028e-02
  3.0849436e-02   5.0692219e-02
  1.7439183e-02   3.3785034e-02
  6.8735657e-03   2.4934020e-02
  5.1123172e-02   1.4337058e-02
 -4.9262747e-02   4.7804900e-03
 -5.7728324e-02   9.8577961e-03
 -2.2110602e-02   7.9844622e-03
 -2.7415540e-02   1.3352152e-02
  5.2143067e-02   1.7066993e-02
 -5.2241288e-02   1.2733698e-02
 -2.0161413e-02   3.2953002e-02
  8.1734121e-02   3.1539693e-02
 -1.9743861e-01   3.1812966e-02
 -5.0382625e-04   1.9473616e-02
 -6.8349675e-03   2.1599332e-02
  1.6988199e-02   1.0289928e-02
  2.6926644e-02   1.6347110e-02
 -9.5065653e-02   6.0807690e-03
  1.3188139e-02   1.1346119e-02
 -3.5555795e-02   2.0891145e-02
 -8.0699272e-02   1.4151583e-02
 -4.6963844e-02   3.5708990e-02
 -8.6236615e-03   1.2357070e-02
 -8.9184731e-02   2.7989255e-02
 -9.3942657e-03   2.6941117e-02
 -2.5453221e-02   2.7036075e-02
 -5.5888873e-02   4.3666922e-02
 -2.0961588e-02   2.7418396e-02
 -7.7255711e-02   3.9052308e-02
 -1.1513367e-01   2.0371540e-02
 -8.2425587e-03   1.6672229e-02
  4.0016994e-03   3.0498452e-02
 -2.3147112e-02   1.5168282e-02
 -1.0185492e-02   2.0715751e-02
  5.2723032e-01   1.3596292e-03
 -8.8295065e-02   9.1610412e-04
  7.3520285e-01   4.0662370e-04
 -5.7674879e-01   3.4303791e-04
 -4.9942222e-01   1.1982386e-03
 -5.9300953e-01   2.9088133e-03
  2.5980603e-02   3.2073770e-02
 -8.9810453e-02   5.6717875e-03
 -3.3747387e-01   4.0173219e-03
 -1.6911902e-01   5.0044577e-03
  5.4057044e-01   6.3899150e-03
  6.7742251e-02   1.7433075e-02
  4.3157196e-01   8.7750601e-03
  1.8672015e-01   4.1791806e-03
  4.6806052e-01   7.9555809e-03
 -1.7364539e-01   4.4044303e-03
  4.4207118e-02   1.1867828e-02
  1.4399444e-01   4.0469468e-03
  1.8836983e-01   5.2193259e-03
  3.1013992e-01   2.9094843e-03
  7.3945159e-01   6.4927251e-03
  1.5611570e-02   1.9516658e-02
 -1.7644808e-01   1.1265607e-02
 -3.4446505e-01   7.8347428e-03
 -4.8945833e-02   5.4956423e-03
 -2.1432573e-02   2.1822300e-02
 -2.4185702e-02   1.5605966e-02
 -2.1528138e-02   2.1512816e-02
 -5.4367792e-02   3.9859347e-02
 -3.1703498e-02   8.5549196e-03
 -6.2900260e-02   1.2219419e-02
  6.8893202e-02   9.1087688e-03
 -1.4931522e-04   1.0080029e-02
 -1.7880496e-01   8.6274436e-03
  3.7669569e-02   3.1680502e-02
 -4.0285415e-03   2.3530848e-02
 -3.6827512e-02   8.0428561e-03
 -3.6310721e-02   3.3366829e-02
 -1.0363466e-02   2.5821388e-02
  1.6661752e-02   2.7741935e-02
 -3.0237161e-02   1.9363858e-02
 -1.2084976e-02   3.8299289e-02
 -8.6665496e-02   1.6014976e-02
 -4.6698611e-02   3.5056613e-02
  2.8173221e-02   2.0374306e-02
 -7.4598594e-03   3.2932941e-02
  5.3257141e-02   9.3953898e-03
  5.1651336e-03   6.2591530e-02
  1.1613571e-02   2.8157257e-02
 -5.9959911e-02   9.7521180e-03
 -1.4755826e-02   2.6324751e-02
 -7.9338551e-03   1.9634275e-02
 -5.9337884e-02   8.3744554e-03
 -8.9542583e-02   2.4724156e-02
 -9.9940225e-04   2.1735588e-02
 -1.1582144e-03   1.3353989e-02
  6.3364737e-02   1.1733716e-02
 -1.8229648e-02   2.9280640e-02
 -1.1633954e-02   1.8145924e-02
  9.4359487e-02   4.2203277e-02
  4.5443423e-02   2.0228589e-02
  4.4841297e-02   1.9751426e-02
  4.3001097e-02   1.3531249e-02
  3.4161095e-02   2.1059966e-02
 -9.8137118e-02   1.7275577e-02
 -1.4195468e-01   1.3155271e-02
 -4.2303903e-03   3.2894257e-02
 -8.5249364e-02   1.5535329e-02
  1.7534448e-02   2.6126165e-02
  1.9985462e-02   1.3828945e-02
  5.1865261e-02   1.4316228e-02
 -9.9041658e-03   4.7751654e-02
  9.4456133e-03   2.3652509e-02
 -1.5289383e-01   2.5514668e-02
  7.3428057e-02   4.4191979e-02
  9.8557979e-02   1.6478827e-02
 -5.3067684e-02   1.9119194e-02
 -5.8925785e-02   3.2829188e-02
 -8.2264677e-02   9.7317295e-03
 -8.2721412e-02   7.7034398e-03
 -1.3493540e-02   1.7182421e-02
 -3.1134540e-02   1.4729255e-02
  3.5125304e-02   3.5830431e-02
  5.0287690e-02   8.9211846e-03
 -8.1429750e-02   2.3105249e-02
  2.9658228e-03   3.0479232e-02
  1.7517854e-02   3.0272078e-02
 -2.6850779e-02   2.7200688e-02
  5.5668969e-04   2.2868378e-02
  5.3134402e-03   3.2130238e-02
  9.4712740e-01   9.6733798e-04
 -5.2358370e-02   2.4347827e-02
 -1.4908314e-02   4.0943585e-03
  1.2379312e-01   6.3816789e-03
  3.0378537e-02   1.5072783e-02
 -3.8776237e-03   1.7988393e-02
  1.2632282e-01   5.7598609e-03
  8.9771920e-01   1.7304089e-03
  5.9375860e-02   2.9866142e-02
  7.1076043e-02   3.0796356e-02
 -1.3440378e-02   1.5517193e-02
 -4.1880749e-02   7.5365053e-03
  3.3103012e-02   2.2649972e-02
 -2.3731260e-02   1.7191738e-02
  1.9734511e-01   9.4872043e-03
  2.8895130e-02   7.1971701e-03
 -1.8156033e-02   9.3563208e-03
 -1.2728553e-02   2.1569986e-02
 -8.5182197e-02   3.4569751e-03
  1.3060377e-02   8.1559364e-03
  1.3291650e-01   7.8516463e-03
  2.6026364e-02   2.6629895e-02
 -6.6969782e-02   3.9347488e-02
  4.4235289e-01   6.0243905e-03
 -3.4443744e-02   1.3539632e-02
  2.3076277e-02   9.8223155e-03
  3.6391839e-02   5.0127450e-02
 -9.9111110e-02   5.3928844e-03
 -3.1035310e-02   1.4836248e-02
 -5.3565059e-02   1.5233613e-02
  9.3768793e-01   6.7159208e-04
 -1.2244461e-01   8.4809652e-03
  4.4487506e-01   8.2075561e-04
  1.3886242e-01   6.9169425e-03
  2.9211821e-02   3.8184847e-03
 -2.1495270e-02   5.9656459e-03
  1.9758967e-01   1.8276321e-03