  6.8273373e-02   1.2283692e-02
  2.3466986e-02   2.1170983e-03
  3.2426050e-01   1.4614486e-03
 -1.4472716e-01   1.9838803e-03
  1.7103547e-01   1.0563370e-03
  1.7229315e-03   3.4078164e-03
  6.7575853e-03   7.6092160e-03
  7.9911880e-02   1.3434292e-02
 -1.0583112e-01   4.9445098e-03
 -1.5095705e-01   3.5244168e-03
  3.4036297e-01   8.6418791e-03
  8.6105298e-03   2.3390071e-03
 -3.2717206e-02   1.3284049e-02
 -8.0685355e-03   4.3720021e-03
 -4.5184758e-03   7.3855068e-03
  1.1269420e-01   3.7246512e-03
 -3.7809548e-03   3.7558989e-03
 -1.4643151e-01   1.9073144e-02
  8.1985819e-01   1.9768006e-03
  3.9966729e-01   2.7950369e-03
  1.1327837e-01   5.3088702e-03
  1.9416096e-02   6.0095680e-03
 -3.5152151e-03   1.5463088e-02
 -3.7613388e-02   7.5543132e-03
  6.6014446e-02   2.6546107e-03
 -1.7312182e-02   2.8059633e-02
  4.7156289e-02   1.9163109e-02
  4.2878013e-02   1.3453522e-02
 -2.0557681e-02   1.2415133e-02
  1.9378662e-02   3.1263936e-02
  1.8370624e-01   1.2747172e-03
  4.9738604e-01   1.3504187e-03
  3.1708613e-01   1.1145408e-03
 -2.8875130e-01   2.4735346e-03
 -1.3892032e-01   1.8395948e-03
  1.6826853e-01   1.4035838e-03
 -7.6415084e-02   2.7117799e-03
 -5.9294894e-02   1.4064628e-02
  1.1612097e-02   6.7169713e-03
 -1.2897067e-02   6.7310804e-03
  7.1448646e-02   5.7017575e-03
 -8.6537600e-02   4.4421703e-03
 -4.8158534e-02   9.9930232e-03
 -4.5156054e-02   2.2204397e-02
  7.4399494e-02   7.2322283e-03
 -1.1799617e+00   3.2706542e-03
 -5.4964501e-01   3.5596592e-03
  6.7586586e-02   1.2500371e-02
  2.1139910e-02   1.6923726e-02
 -9.5087275e-02   3.4064830e-03
  4.5723096e-03   6.4778002e-03
 -6.1957061e-01   2.7240531e-03
  2.4150729e-02   1.1332607e-02
  8.0521926e-02   2.4109850e-02
 -2.0359230e-01   5.9879767e-03
  1.7343628e-01   1.8275537e-02
 -1.5825242e-02   1.0568567e-02
 -3.3828940e-02   2.4023762e-02
 -3.8960066e-02   3.7827510e-02
 -1.5420361e-01   1.7302532e-02
 -2.0432746e-02   1.5038080e-02
 -1.5710759e-01   2.7369227e-02
 -6.4103745e-02   1.1763961e-02
 -3.1201176e-02   1.7228780e-02
  1.0112722e-01   1.8747231e-02
 -4.8799329e-02   1.9366872e-02
  2.5340313e-02   7.9302629e-03
  9.4491437e-02   3.0057510e-02
  3.3119656e-02   1.4324369e-02
 -2.5032107e-03   2.7194113e-02
 -7.0152469e-02   8.5219787e-03
 -5.0137371e-02   8.2960073e-03
  2.1608878e-02   2.2717696e-02
 -1.7649062e-02   1.3770983e-02
  4.7424320e-02   1.3381347e-02
  7.5725377e-02   9.8333983e-03
  7.7129193e-02   5.1799570e-03
  2.6116412e-02   1.6737454e-02
  3.2334790e-02   1.6421024e-02
  3.3303641e-02   2.9620335e-02
 -3.2676842e-02   1.9447213e-02
  2.0976588e-01   1.9995874e-02
  9.9240895e-04   1.7080773e-02
 -2.3959324e-02   1.9540267e-02
 -5.6582399e-02   1.9063951e-02
  6.1163832e-02   1.7738178e-02
  3.3909526e-02   2.3498457e-02
  2.8906221e-02   1.3893759e-02
  1.4842090e-02   7.9974085e-03
 -1.1062627e-02   2.3386678e-02
  8.0099064e-01   1.6072872e-03
 -1.5415632e+00   2.5680498e-03
  5.0615001e-01   7.7790004e-04
 -3.6044225e-01   7.2708592e-04
  4.2642069e-01   5.0671410e-04
 -4.9171060e-02   8.4732110e-03
 -1.7431066e+00   2.4222757e-03
 -5.5222976e-01   1.0219358e-02
 -3.0500062e-02   1.6556096e-03
 -3.5144353e-01   9.1159027e-03
  4.2812571e-02   8.5111484e-03
  5.0444588e-02   3.6187628e-03
 -4.2220628e-01   9.3376441e-03
 -2.3140128e-01   3.4723072e-03
 -9.4725646e-02   5.3907484e-03
 -8.4581420e-02   5.9591262e-03
 -3.6544237e-02   1.4535456e-03
  7.7648528e-02   9.2984689e-03
  2.9158127e-01   2.4300942e-03
  9.1030508e-02   1.5838522e-02
  2.1156622e-01   1.1952455e-02
  2.2304604e-02   5.4413844e-03
  1.0152967e+00   3.4893898e-03
  1.0887872e-01   6.9888709e-03
 -5.4133531e-02   1.0707173e-02
  4.8894852e-02   1.1750039e-02
 -1.9204820e-02   1.0880663e-02
 -8.4076904e-02   2.3221089e-02
  1.0911804e-01   1.7617105e-02
 -4.2925633e-02   2.6691427e-02
 -1.6464275e+00   2.3090551e-03
  2.2347550e+00   2.3609889e-03
 -1.8620700e+00   2.6917271e-03
 -2.0435227e-01   8.8473497e-04
 -2.0884107e-01   2.0624504e-03
  1.8686587e-02   9.3606627e-03
  1.9297808e-01   9.2998333e-03
  1.6363582e-01   1.2941843e-02
  6.8263352e-01   7.3201978e-03
  1.4596239e-02   8.4179817e-03
 -7.8303769e-02   2.5592335e-02
 -3.1544198e-03   6.8570566e-03
  1.7384243e-01   8.7397024e-03
  1.9521137e-01   1.7055100e-02
 -1.3312344e-01   3.6005106e-02
 -4.6238936e-02   2.2370283e-02
 -3.2956903e-03   1.4445706e-02
  2.9628819e-02   4.5149405e-03
 -3.7384972e-02   7.0388769e-03
 -1.9851040e-02   1.4217324e-02
  6.4792238e-02   1.5823901e-02
  3.3674300e-02   2.0265754e-03
 -3.3762064e-03   1.4448566e-02
 -7.0094816e-02   6.5582241e-03
  1.1936823e-02   2.4832163e-02
  1.3649227e-02   1.9921873e-02
 -2.1511646e-02   5.6016240e-03
  5.0951459e-02   1.4446934e-02
  2.8547597e-01   1.3876838e-02
  2.9674212e-02   1.8644718e-02
 -1.0309795e-02   1.3016377e-02
 -3.7385937e-02   3.1967661e-03
 -7.5417915e-03   9.3410276e-03
  4.0247247e-02   6.9541098e-03
 -1.5786167e-02   6.1677154e-03
  5.0594145e-01   2.5675495e-03
 -3.7917323e-02   1.4654830e-02
 -1.4995888e-01   1.0446031e-02
  8.2842298e-03   2.6331268e-02
  3.1088949e-03   1.5203148e-02
  4.0369067e-02   2.6797816e-02
 -5.9769321e-02   1.2307550e-02
 -2.3493701e-01   1.3964068e-02
 -1.9672681e-01   7.2568245e-03
  1.0028089e-01   2.6187716e-02
  3.8888715e-02   9.3179606e-03
 -7.1502123e-03   1.0717168e-02
 -1.8926831e-03   1.8553749e-02
 -4.5411982e-02   1.0050151e-02
  3.9343346e-02   2.2465704e-02
 -8.5471869e-03   5.1144459e-03
 -9.1440957e-03   2.2147147e-02
 -1.6562970e-02   1.1753146e-02
 -3.8887806e-02   8.3265044e-03
 -2.2598511e-02   2.9668413e-02
 -3.0014965e-01   1.5939359e-02
 -3.8250986e-02   5.8865058e-03
 -2.8416175e-02   2.4873322e-02
  1.8419096e-02   1.6287569e-02
 -2.2812895e-02   3.4573374e-03
  7.2705895e-01   1.1806134e-03
  2.7976522e-01   5.5303640e-04
 -6.4401694e-02   2.4621349e-04
 -4.7691891e-01   8.2388002e-04
  5.5457775e-02   1.0714312e-03
 -9.8351812e-01   2.3524524e-03
  7.8289628e-01   5.1473081e-04
 -3.3116129e-01   1.9230628e-03
  1.6691448e-02   2.9882025e-03
  8.8722154e-02   9.0553854e-03
  7.7117711e-02   3.6744124e-03
  2.8680952e-02   5.7261027e-03
  3.0704796e-01   6.5818764e-03
  1.5664618e+00   3.0188579e-03
 -2.5361774e-02   5.9102839e-03
 -1.5837939e-01   4.5540230e-03
  3.9062259e-01   3.7358687e-03
 -5.8981323e-01   2.5863023e-03
  1.9508666e-01   1.1604646e-03
  2.5484245e-02   1.4112787e-02
  5.2874923e-01   4.2582620e-03
  5.1783216e-01   3.3424492e-03
 -9.6894777e-01   1.2890213e-03
 -2.4219887e-01   2.1942658e-03
  2.2217929e-03   7.4884752e-03
  2.2435179e-01   9.9947909e-03
 -1.9639568e-01   1.0882744e-02
  7.2872102e-02   1.2233646e-02
  5.8355230e-01   1.6316371e-02
  5.5008670e-03   1.5796840e-02
 -5.2145873e-03   1.1329217e-02
  1.5741345e-01   9.9436324e-03
 -1.8104065e-02   4.6665156e-03
 -7.6930977e-02   3.6396703e-03
 -1.0282271e-02   6.3264738e-03
  8.4643453e-02   5.0323615e-03
 -4.8764423e-02   1.2377085e-02
  3.0680597e-01   4.5315032e-03
 -1.0665169e-01   8.3003715e-03
 -8.8658258e-02   9.3314368e-03
  1.3718592e-02   4.4213939e-03
  1.0480965e-03   7.5530089e-03
 -1.1930914e-02   1.3890521e-02
  1.4916607e-02   8.7905051e-03
 -2.7286993e-02   1.2968637e-02
  3.5144272e-01   4.4578626e-03
  3.2518119e-02   7.9409163e-03
 -3.2530416e-02   6.3880524e-03
 -2.2093979e-01   2.2074269e-02
  3.2793614e-04   1.3545416e-02
  1.2003440e-02   1.1847825e-02
 -1.4743638e-02   1.9117301e-02
  3.9297909e-02   7.8115040e-03
  6.8671643e-03   3.0843292e-03
  3.2277867e-02   1.0277977e-02
  6.8510771e-02   1.1933459e-02
  4.9545951e-03   2.2975754e-02
 -1.0383170e-01   1.2572724e-02
 -9.7364314e-02   9.2211002e-03
  5.9177108e-02   6.7237201e-03
 -9.4121471e-03   1.0176774e-02
 -1.6821794e-02   3.5921689e-02
 -1.6269515e-01   9.0499967e-03
 -1.0012069e-01   9.8279472e-03
 -1.5012793e-02   5.3320182e-03
 -2.3096405e-02   1.4934485e-02
 -4.8381188e-03   2.7678361e-02
  3.5419498e-02   2.0429501e-02
 -6.3843410e-03   1.1734486e-03
 -3.2545462e-02   6.9680978e-03
  6.5633692e-02   2.8018629e-02
  3.4112744e-02   3.3892728e-02
  3.5342842e-03   1.4344604e-02
  9.0165799e-03   1.4373042e-02
 -1.1580656e-01   1.4290201e-02
  2.9123653e-02   2.7962348e-03
 -7.3872194e-02   1.8759362e-02
  1.0629491e+00   4.6906881e-03
 -2.6779760e-02   9.8941866e-03
 -3.1588573e-02   1.4977160e-02
 -1.1418367e-01   1.2238155e-02
  6.3134842e-02   1.4889006e-02
 -1.2089769e-01   1.0843299e-02
 -2.1728752e-02   3.8667440e-02
 -5.3343959e-02   2.4480391e-02
  2.4449185e-02   4.1197753e-03
  1.4563684e-02   1.7605837e-02
 -4.3487221e-02   2.0606330e-02
  1.5800585e-01   3.0691106e-02
 -6.9655639e-01   5.8947098e-03
  1.4988168e-02   5.4015778e-03
 -6.6399731e-02   1.0435351e-02
 -3.7907648e-03   1.0739272e-02
 -1.6830802e-02   4.4409339e-03
 -6.3431538e-03   1.3374860e-02
  1.8579400e-01   1.9975359e-02
  4.5198925e-02   1.1264299e-02
 -1.7506240e-02   6.6509484e-03
 -6.7550480e-02   1.0115298e-02
  1.1529802e-01   1.7859818e-02
 -6.5120077e-04   4.4213827e-03
 -2.3039235e-03   1.6481197e-02
  4.2425111e-02   9.9535845e-03
 -5.4426506e-02   1.8773345e-02
 -4.2301603e-02   1.7356886e-02
  2.2426886e-03   1.9053629e-02
  4.9550630e-02   2.2857079e-02
  6.9125533e-02   2.5224019e-02
  6.0589407e-02   9.4692819e-03
 -2.6960839e-02   4.2760144e-03
 -6.7991884e-03   1.0588925e-02
  2.8389890e-02   1.7068179e-02
  2.7404208e-02   3.2458477e-02
  7.4173547e-02   1.8825257e-02
  6.4699322e-02   6.9905627e-03
 -4.5907940e-03   1.7914815e-02
  8.9887157e-02   1.4653345e-02
 -1.0726991e-01   6.5876888e-03
 -7.4068539e-02   8.8477200e-03
 -1.5824731e-01   3.3676045e-03
 -5.8417010e-01   1.2063517e-03
 -6.3986486e-01   7.2755787e-04
 -4.9580458e-01   5.1725830e-04
  3.2870084e-01   1.1562235e-03
  5.4812729e-01   6.3511857e-04
 -3.1246305e-01   1.4427259e-03
 -2.5629768e-01   3.8800759e-03
 -1.7400270e-02   2.5978329e-02
  2.4217788e-02   4.4217808e-03
 -2.3175538e-01   3.4904387e-03
 -4.1877714e-01   2.9128704e-03
 -8.1411678e-01   4.9159080e-03
  6.8541527e-02   2.8988791e-03
 -6.0668424e-02   1.3926473e-02
 -1.9393095e+00   2.5618616e-03
  2.4489813e-01   1.9959484e-03
  4.9699232e-01   2.6673153e-03
 -2.6002273e-02   2.2415301e-02
  4.0515158e-03   2.2906935e-02
  1.6263452e-01   2.1969134e-03
 -7.8486828e-03   3.6717679e-03
  3.3629987e-02   5.4773791e-03
  1.7796390e-02   2.1436255e-02
  1.5424618e-01   1.5851647e-02
 -2.5609836e-03   4.3233391e-03
  4.4588316e-02   6.8400027e-03
 -1.2802036e-02   3.3625530e-03
 -1.7438700e-02   2.2204019e-02
 -2.4407122e-02   1.8482480e-02
  2.2996467e-01   2.4423361e-02
 -8.1555448e-02   9.5727295e-04
  1.2790495e+00   1.1999756e-03
  6.9182865e-02   1.2341295e-03
 -7.2928572e-01   8.1049372e-04
 -8.1292969e-01   7.6366425e-04
 -3.6483574e-01   7.1760197e-04
  2.1883627e-02   8.1474036e-03
  1.2822551e-01   4.9671480e-03
 -1.2656200e-02   1.2796441e-02
  1.6434047e-02   2.3138467e-03
 -3.4840363e-01   9.6847797e-03
 -5.7370651e-01   1.5246754e-03
  6.2587354e-03   6.4749881e-03
 -1.7492907e-02   2.0724963e-02
 -1.9862463e-01   1.7226838e-02
 -1.0070235e+00   1.9480478e-03
 -4.4593476e-02   1.0808958e-03
  2.0637695e-02   6.4483387e-03
 -3.1585738e-02   3.8664408e-02
 -1.1916332e+00   1.6760950e-03
 -1.3777517e+00   1.8611350e-03
  7.0619565e-03   6.8877968e-03
 -5.0074197e-02   2.7006522e-02
 -1.9253166e-02   3.5970993e-02
  8.6086959e-01   1.4941434e-03
 -1.5340953e-01   3.9776050e-02
 -1.5808843e-01   9.9054947e-03
  1.7956540e-02   1.3771296e-02
 -1.4666184e-02   2.0976976e-02
  7.3556602e-03   4.1779041e-02
 -2.9267314e-01   3.3746434e-03
 -7.0939523e-01   1.9511670e-03
  1.0033003e+00   8.5913151e-04
 -1.0454789e+00   2.0293132e-03
 -4.7490206e-01   2.6179326e-04
 -1.5185174e-02   9.4312634e-03
 -1.7347856e-01   7.4587730e-03
 -6.6095926e-02   1.5759075e-02
 -2.0846836e-03   3.7056354e-03
  6.3029654e-02   1.8343795e-02
  1.2072342e-01   1.4209322e-02
 -8.2546346e-02   8.0463365e-03
  7.5530104e-02   1.0638538e-02
 -2.6047355e-01   1.2073275e-02
 -6.3046217e-02   1.7150158e-02
 -1.5702300e-02   1.0543671e-02
 -1.2997514e+00   2.0380588e-03
 -4.9817119e-02   6.0004825e-03
  3.8326293e-02   8.1729265e-03
 -6.7651577e-02   9.0452405e-03
 -3.4008794e-03   8.3081769e-03
  1.0234717e-01   9.9995015e-03
  3.9347735e-01   1.9082790e-02
  3.2407618e-01   3.0263519e-02
  1.3990451e-01   1.2896288e-02
  2.1745479e-02   9.8642269e-03
 -6.9056869e-02   2.1671642e-02
  3.8254868e-02   1.1134055e-02
  3.5720891e-03   8.5409172e-03
  4.6782732e-02   8.3776070e-03
 -2.2737799e-02   1.9388948e-02
 -1.5070216e-01   3.0003233e-02
 -1.4298255e-02   7.2259875e-03
  5.4210201e-02   2.8967317e-03
  2.3299538e-02   1.3196851e-02
 -5.6567144e-02   1.1453926e-02
 -2.8632477e-02   1.6918873e-02
 -6.8610102e-02   1.4999730e-02
  1.3899878e-03   1.2156803e-02
  1.0535297e-01   2.2989186e-02
 -5.6840517e-03   4.3397541e-03
  1.8143896e-02   1.6858663e-02
  5.4944768e-03   2.5009522e-02
  4.9115703e-02   2.6196020e-02
 -2.5765272e-03   1.2946859e-02
 -2.4975147e-02   1.2250377e-02
 -7.2904624e-02   1.8793926e-02
 -1.4804605e-02   8.9739710e-03
  3.5655260e-02   1.1870254e-02
 -1.1959871e-02   1.4792372e-02
 -5.7433071e-03   2.3399504e-02
 -3.6213793e-02   1.1921356e-02
  1.5470806e-02   2.5849439e-02
 -2.2804530e-02   1.4346763e-02
 -2.3253961e-02   5.9007020e-03
 -2.9106688e-02   1.2798338e-02
 -1.7172644e-02   1.8624069e-02
  2.3631286e-02   9.9213775e-03
 -4.2666655e-02   1.3002288e-02
  9.2800828e-03   2.1734748e-03
  1.8356771e+00   3.3903900e-03
  4.5286492e-01   1.2393850e-03
 -1.1394645e-01   1.3287053e-03
 -9.0325564e-01   1.8401040e-03
 -2.8173923e-01   1.0569465e-03
  3.3410817e-01   2.0126482e-03
  1.1057800e-01   4.0549850e-03
 -1.0001528e-01   4.4376305e-03
  2.5904724e-01   4.3820399e-03
  9.2277512e-02   9.1650719e-03
  5.7198949e-02   7.9317205e-03
  1.2619253e-01   3.7403484e-03
 -7.0706531e-02   1.1082834e-02
  3.4593290e-01   4.0882630e-03
  2.2828629e-02   1.9437002e-02
  2.6806826e-02   9.6039632e-03
 -2.0517385e-01   5.3897230e-03
 -2.8901093e-03   4.8673810e-03
 -1.8303896e-01   4.6674861e-03
  6.9913849e-02   1.9636704e-03
  4.6686549e-03   1.2112587e-02
  5.0815184e-02   9.4122272e-03
 -1.1456363e-01   5.4602483e-03
  2.4597485e-02   7.4823713e-03
  8.8801041e-02   8.0322940e-03
  5.0798882e-02   2.5934109e-02
 -6.3057311e-02   9.4347084e-03
  3.3198122e-02   2.3154641e-02
 -3.0648986e-01   1.1584122e-02
 -6.9424319e-03   1.9176507e-03
  2.2721450e-01   2.4986386e-03
 -8.4322780e-01   3.8736779e-04
  6.7315912e-01   2.8008872e-04
 -8.8900685e-01   1.1778591e-03
  8.3819516e-03   4.7259071e-04
  3.5126072e-01   7.7374163e-03
 -2.6412493e-01   5.5317334e-03
 -5.4388870e-02   1.2970520e-02
  1.2375748e-01   3.4056900e-03
 -6.4715855e-02   1.1515420e-02
  2.6238349e-01   3.8062977e-03
  2.8655019e-02   2.3059051e-03
 -3.0566931e-01   1.2636783e-02
 -1.9893701e-01   1.6230927e-03
 -1.7544478e-02   1.9640859e-02
  6.3679725e-02   4.3383138e-03
 -5.2570980e-03   3.3542984e-03
  3.9975277e-01   2.1908223e-03
  5.5818050e-03   4.2502848e-03
 -2.1329492e-02   1.2803636e-02
  8.6579937e-03   7.1789999e-03
 -6.6819745e-01   3.7866533e-03
  3.2558891e-01   3.5998118e-03
 -4.2669877e-01   3.9232904e-03
 -1.0240995e-01   6.8086134e-03
  3.9913796e-02   1.5189566e-02
  7.5052075e-02   8.3953748e-03
  1.7207211e-02   2.2910219e-02
 -3.1903272e-03   1.6386237e-02
  3.4770044e-03   9.0672756e-03
  6.4033072e-04   1.5718469e-02
 -2.9303595e-02   2.9356054e-03
 -7.6961280e-03   3.9586881e-03
  3.8757131e-02   1.6093461e-02
 -6.1375141e-02   4.9615158e-03
  3.7227590e-02   1.5035036e-02
  7.1723983e-03   3.4538507e-02
  1.8004641e-02   2.1543244e-02
 -2.0367237e-02   1.2237727e-02
  2.4956582e-02   1.1603097e-02
  9.0409800e-02   1.5860761e-02
  2.9717840e-02   3.1435136e-02
 -3.7676517e-02   3.0131925e-02
  6.3928112e-02   6.0804165e-03
 -2.9511310e-02   1.5233095e-02
  7.9980627e-02   2.2332946e-02
 -7.8382708e-02   1.6916817e-02
 -2.6399696e-02   7.3487875e-03
 -1.2215336e-02   4.4455687e-03
  1.6902758e-01   4.2108893e-03
  2.1826383e-02   1.6161229e-02
  8.2612252e-03   2.4627084e-02
  4.0180836e-02   2.4030898e-02
 -2.9162250e-02   2.6853414e-02
 -7.6005079e-02   2.0545609e-02
  3.7748795e-03   2.6373817e-02
  1.5769777e-03   1.5906740e-02
 -4.0187109e-02   1.6103020e-02
 -2.9616423e-02   2.4712870e-02
 -2.7149571e-02   1.1965339e-02
  6.8598258e-01   2.1736533e-03
 -9.6731383e-01   2.2032952e-03
  3.3026081e-01   5.5669079e-04
 -6.4902025e-01   8.8504056e-04
 -1.2210647e-01   8.5035834e-04
 -2.7687253e-02   1.0434237e-03
  3.1406146e-02   6.4385575e-03
 -4.4097032e-02   7.9079224e-03
  2.2087505e-01   8.0580469e-03
 -5.5599146e-02   3.8103268e-03
  1.5154447e-01   1.0162469e-02
  1.8568195e-01   7.6938844e-03
  1.0041907e-01   2.5644407e-02
 -3.1353645e-02   1.1703004e-02
  2.5930449e-01   7.3638391e-03
  3.2614592e-02   9.0385946e-03
 -5.3681567e-02   9.8382356e-03
 -9.7712241e-03   8.3927931e-03
 -4.4161577e-02   4.3980381e-03
  1.1075519e-01   1.1529430e-02
  2.5627953e-01   1.1735875e-02
  1.0737617e-01   5.8217137e-03
 -4.5399670e-02   1.5297625e-02
  1.9024026e-01   1.9122811e-02
  2.3423302e-01   6.6672512e-03
  4.4605888e-02   1.3231028e-02
 -1.3940574e-01   9.8968092e-03
  2.4545481e-02   1.0755618e-02
  3.3276804e-02   1.0254165e-02
 -3.8710158e-02   1.4317257e-02
 -4.1239899e-02   2.0519862e-02
  5.3188667e-02   1.1587662e-02
 -1.6170196e-02   1.0411770e-02
  1.1108594e-01   1.5143097e-03
  2.4494421e-02   1.1122466e-02
  1.3084532e-01   2.3556365e-02
 -9.4981261e-02   1.4444595e-02
  3.7108388e-02   2.4196910e-02
 -8.1172861e-02   1.8392101e-02
  1.4034003e-01   1.2218638e-02
  6.8932131e-02   1.2718153e-02
 -3.1203397e-02   1.1595554e-02
 -5.8303881e-02   1.7090403e-02
  2.4225195e-03   8.3985431e-03
  6.4017035e-02   4.7601527e-03
 -1.2072855e-02   2.3933148e-02
 -1.8405145e-01   1.4051697e-02
 -2.9681971e-02   2.4151426e-02
 -6.4827085e-02   3.1084517e-02
  6.8208195e-02   3.3781244e-03
 -7.1969829e-02   1.5214586e-02
  3.4296982e-02   2.4202123e-02
 -5.8101821e-03   1.7288303e-02
 -3.1260833e-02   1.2609666e-02
 -7.1691245e-02   1.6370939e-02
  1.5247399e-02   1.2774136e-02
 -1.9182552e-02   1.6532157e-02
 -3.2388590e-02   4.9188943e-03
  1.8079912e-02   1.0405379e-02
  9.1758110e-03   2.7817642e-02
 -8.0574580e-02   1.9233361e-02
 -6.3673282e-01   2.9790923e-03
  6.3820519e-03   6.0430388e-03
 -4.3281820e-04   1.6750934e-02
 -1.0928208e-02   7.8733107e-03
  4.9477946e-02   6.7103943e-03
  2.2380179e-02   2.0402417e-02
  5.1432256e-02   3.7684771e-03
  8.9825317e-03   2.6109185e-02
  3.8194411e-02   1.4791529e-02
 -1.2421875e-02   5.9217545e-03
 -7.0031933e-02   7.9156309e-03
  2.2757998e-02   2.1794695e-02
 -9.0860631e-03   8.4141642e-03
  6.7595333e-02   2.2459054e-02
  5.6977954e-02   8.5766604e-03
 -1.6306429e-01   2.7704509e-02
  2.8628740e-02   2.3415454e-02
  9.5400885e-02   3.3886448e-02
  1.0477802e-01   1.5683178e-02
 -1.0037438e-01   1.0479939e-02
 -6.1622743e-02   1.7312098e-02
  1.3514347e-03   1.7716283e-02
  6.1638355e-03   1.8121535e-02
  1.9881475e-01   6.5032169e-03
  1.1875195e-01   2.9143270e-02
 -3.4431629e-02   1.7205438e-02
 -1.7328843e-02   1.6350364e-02
 -1.1315219e-01   1.9408941e-02
  6.6737093e-02   1.1757067e-02
 -1.9295174e-01   1.5155637e-02
 -6.6559308e-04   2.7398705e-03
 -8.2573399e-02   1.9867728e-03
  6.7736708e-02   5.9922291e-03
  4.9929515e-02   1.0342387e-02
  1.5460660e-02   7.7907997e-03
 -2.1764229e-01   6.0230326e-03
 -2.1777716e-02   1.5608784e-02
 -8.3662339e-02   1.0508952e-02
 -2.5797276e-02   8.7831952e-03
  2.1023607e-02   7.8609148e-03
  6.6298475e-03   1.0703586e-02
 -6.5707169e-02   8.8647623e-03
  2.3922629e-03   1.2614748e-02
 -5.3680111e-02   1.1549596e-02
  1.1406697e-01   9.7073093e-03
 -6.8093523e-02   1.1881267e-02
 -1.5150663e-02   8.2748700e-03
 -1.9675015e-02   2.5013192e-03
  8.7197060e-03   1.3463693e-02
 -5.3536803e-02   7.0752972e-03
  1.7165074e-02   8.4459810e-03
  1.2220526e-01   1.3436334e-02
 -1.1424840e-02   2.4191640e-02
  3.7393276e-02   8.5279057e-03
  1.5352722e-03   2.1351701e-02
  1.0292571e-01   1.0109397e-02
 -4.3325834e-02   2.1761883e-02
 -7.8509990e-03   1.0283119e-02
  6.8698235e-02   2.6004422e-03
  8.4159352e-02   9.4248884e-04
  3.1011973e-02   1.0814227e-03
 -5.4075319e-01   1.4420429e-03
 -5.5851537e-01   2.3074931e-04
  4.1727875e-03   2.5515317e-04
 -4.1292685e-01   2.2556919e-03
  1.0472566e-01   2.0311852e-03
 -2.3853606e-02   5.9310072e-03
  1.6960844e-01   6.0073924e-03
 -9.1040887e-02   4.1300687e-03
  3.4803072e-01   5.7296767e-03
 -1.1215197e-02   4.9820850e-03
  1.3282828e-01   3.7506619e-03
 -4.1562310e-01   4.6240445e-03
  3.4370258e-01   5.3470810e-03
 -1.3632873e-01   2.6598813e-03
  1.6252002e-01   3.0218314e-03
 -1.0642605e-01   6.4002820e-03
  1.6003442e-01   3.9860164e-03
 -5.2126590e-02   5.8733085e-03
  3.4804043e-01   4.6006395e-03
 -1.5496944e-01   3.1439883e-03
 -9.5880352e-02   1.0524084e-02
  1.1973320e-02   3.8042997e-03
  5.3270552e-02   6.8727890e-03
  8.5268337e-03   2.9581076e-02
 -5.9751675e-02   7.1672308e-03
 -5.6822859e-02   1.5407602e-02
 -9.3878515e-02   1.1573846e-02
 -7.0941083e-02   1.0856434e-02
 -3.2639843e-01   1.7079610e-03
  9.5450383e-01   7.2648370e-04
 -5.3313506e-01   1.0299544e-03
 -7.9153919e-01   5.2602653e-04
 -1.5316596e+00   2.7592878e-03
 -5.0656283e-01   2.0600660e-03
 -2.4374439e-01   5.1612733e-03
  2.0497380e-02   1.3994794e-02
 -4.6151087e-02   1.2917168e-02
 -1.2030743e-01   4.4261459e-03
 -8.7736160e-01   6.4201849e-03
  1.2810759e-02   7.2261235e-03
 -1.6744590e-01   2.2437843e-02
 -8.1144370e-02   2.4060907e-02
 -1.3140623e-01   8.9845173e-03
  4.9669263e-01   8.0232834e-03
  1.7138015e-02   6.5299133e-03
  9.8880171e-04   2.5557820e-02
  3.3740550e-02   2.7655851e-02
 -1.8367640e+00   1.5998271e-03
 -3.2721639e-01   2.5953483e-03
 -1.7522712e-01   9.7117890e-03
  3.6665943e-02   8.9463368e-03
 -1.1287279e-01   6.0033160e-03
  6.7340797e-01   2.6250484e-03
  1.2804208e-03   6.7648008e-03
 -1.5771553e-02   4.8660780e-03
 -9.8654442e-03   2.9329944e-02
  4.9235772e-02   7.2362553e-03
  1.9416792e-02   9.0235705e-03
  2.3109103e-02   6.2888078e-03
 -1.4251983e-01   3.9172359e-03
  6.5197378e-02   2.2137014e-03
  1.1361178e-01   5.5678957e-03
  3.5913160e-01   2.7792458e-03
 -1.1051995e-01   2.5496930e-03
  2.3963033e-01   6.8298141e-03
  1.0011873e-02   2.3552226e-02
  7.7108897e-02   1.2637068e-02
 -6.2200357e-04   2.6842668e-03
 -2.4482174e-02   4.1715917e-03
  1.0283873e-02   1.2883996e-02
 -2.3807760e-02   1.9797755e-02
  2.5971553e-01   7.1719061e-03
 -5.6889867e-03   6.4728046e-03
  1.2512976e-02   1.5839661e-02
  7.1379118e-02   5.0706891e-03
 -1.4038881e-02   8.1526209e-03
  2.2268903e-02   1.8136838e-02
 -4.4864446e-02   6.4897598e-03
  6.2954776e-02   1.8146371e-03
 -6.4268047e-03   4.6536610e-03
  4.3622807e-02   6.2682764e-03
  2.1729678e-02   2.2816734e-02
  1.1393563e-01   9.3873432e-03
  3.8161878e-03   1.0277279e-02
 -9.6068345e-02   8.3922287e-03
 -3.3707529e-02   1.6723026e-02
 -1.9568598e-02   1.0490665e-02
  1.0405557e-01   1.0530124e-02
  1.9566927e+00   1.4990879e-03
 -2.7237749e-01   1.2560438e-03
  6.8470258e-01   7.3562528e-04
  1.6901472e+00   1.4662727e-03
  1.9606357e+00   5.9554563e-04
  6.1415809e-01   2.0138277e-03
 -3.3595681e-02   1.2552512e-03
 -1.5229405e-01   2.5034235e-03
 -6.2228322e-01   3.9059666e-03
  1.0810523e-01   2.9670135e-03
  2.0168254e-01   3.1395582e-03
  6.9238836e-01   5.2062627e-03
 -5.0251219e-02   1.3325397e-02
  2.6182557e-02   4.1194186e-03
  4.6499965e-01   1.2079307e-02
  4.9649242e-01   5.7618986e-03
  3.1078890e-01   5.7084998e-03
 -6.8201214e-02   2.4896222e-03
  9.3414612e-02   2.4208673e-03
  5.1988161e-01   5.3298436e-03
  1.7715473e-01   3.4245357e-03
  3.0534942e-02   3.2421283e-03
 -6.7579567e-02   4.1206679e-03
 -1.9968417e-02   5.1371921e-03
  3.9891396e-02   1.7773253e-03
 -1.6088739e-02   7.5185141e-03
  1.0971298e-01   2.0742171e-02
 -1.8233571e-02   9.1768326e-03
 -6.0546994e-02   9.7449683e-03
 -1.5567215e-01   1.7982159e-02
  2.1320016e-03   4.6712356e-03
 -9.6749023e-02   4.4774353e-03
  8.9617163e-02   5.1417025e-03
 -7.3831707e-02   6.4347428e-03
  3.0264558e-02   1.9576713e-02
 -1.4800698e-02   1.6074445e-02
 -1.4452708e-01   3.9791325e-03
 -2.0810783e-02   2.4664141e-02
  2.2066809e-02   2.9499294e-02
 -8.8888958e-02   1.9518469e-02
 -3.7057044e-03   2.3096001e-02
  3.8112271e-01   9.4229886e-03
  3.6667742e-02   2.1803152e-02
 -2.8342843e-02   1.3165887e-02
  1.0772762e-01   8.1532560e-03
  1.0328732e-02   2.1064291e-02
 -1.8948667e-01   1.7816909e-02
 -8.7717764e-02   1.2711477e-03
 -2.4113460e-03   9.2887171e-03
  8.7350812e-03   1.9367898e-02
 -7.6341674e-02   2.1120628e-02
  5.5087376e-03   2.1333238e-02
 -1.0980185e-01   7.4355570e-03
  5.3778598e-03   3.3716917e-02
  6.5279645e-03   1.5754499e-02
 -3.0119445e-02   7.8848805e-03
 -1.7672338e-02   6.1803772e-03
 -1.4809342e-01   7.4738176e-03
 -1.6159552e-01   5.7573714e-03
  3.3728920e-03   1.7998487e-02
 -1.5897122e-01   1.2268963e-02
 -5.4270595e-02   8.5398331e-03
  7.9937670e-03   4.3661091e-03
  1.4971332e-01   2.1866357e-03
  1.9269644e-01   7.0620095e-03
 -1.1345685e-02   1.2109390e-02
 -8.7143511e-02   5.1049450e-03
  3.4623202e-02   1.1909066e-02
  3.4989193e-03   8.4729772e-03
  4.0926050e-02   1.7565608e-02
  6.7747362e-02   1.1516219e-02
  4.7535598e-02   5.2610706e-03
 -1.3466728e-01   2.9559057e-02
 -1.0391487e-01   1.5100194e-02
  8.2109980e-02   8.3627133e-03
  8.1449434e-02   1.2354709e-02
  1.7438501e-02   1.5203125e-02
  4.0253237e-02   2.1568811e-02
  1.1204328e-01   1.3553358e-02
 -3.5346016e-02   7.9679089e-03
 -3.2498971e-02   2.4008648e-02
  5.4019988e-02   2.0366695e-02
 -5.9068692e-03   4.3918327e-03
  5.6269899e-02   2.0397987e-02
  1.1744253e-01   5.7182675e-03
  6.8692110e-02   2.3718001e-02
 -4.3626800e-02   2.0492994e-03
  1.2372981e-04   1.0117210e-02
  1.9456828e-02   2.8764028e-02
  3.5919536e-02   1.2993792e-02
  3.4125289e-01   5.0613289e-03
  2.8880301e-01   1.2264320e-03
 -1.4530183e-02   1.4406953e-03
 -1.2879266e-01   2.5866746e-03
 -2.0885546e+00   8.6256111e-04
  6.5317298e-03   6.8777911e-03
 -4.7703689e-01   5.0669168e-03
  2.0300856e-02   2.4519855e-02
 -5.3982016e-02   1.3201202e-02
 -1.4766856e+00   2.7574331e-03
  8.4527326e-01   3.7399279e-03
 -7.6440893e-02   7.2453744e-03
  6.6316120e-02   1.0453603e-02
  4.6251626e-03   8.1439000e-03
  1.3271874e-01   3.1963771e-03
  4.9254749e-02   3.0896387e-03
 -7.6904409e-02   9.9850390e-03
  3.4381691e-01   5.0324285e-03
 -4.2442840e-02   1.3765895e-02
  4.1333951e-02   4.0247557e-03
  6.0739750e-01   7.3807314e-03
 -2.2470409e-02   7.3629911e-03
  5.3993143e-02   1.0784047e-02
  3.8276058e-02   3.4255151e-02
  1.0108732e-01   6.7026718e-03
  7.4629039e-02   2.2335539e-02
  1.7517330e-02   1.3242554e-02
  2.1859573e-02   2.2360586e-02
 -4.6826811e-03   3.2514695e-03
 -2.0613266e-02   6.5995450e-03
  8.9967126e-01   1.3837300e-03
  1.7279694e-02   4.6727373e-04
 -8.8875329e-01   1.6362724e-03
  1.1473399e-01   2.6436144e-04
  1.4036854e-01   4.2754467e-04
  2.2458759e-01   3.5265281e-03
 -2.8592816e-01   4.5511248e-03
  9.2169024e-02   4.9134889e-03
  8.7255722e-01   3.3026971e-03
  7.9336409e-03   1.1650764e-02
 -3.7619870e-02   5.2968054e-03
 -1.4690284e-01   4.1382150e-03
  6.8352618e-03   7.8243380e-03
 -9.4756529e-02   3.9495700e-03
 -7.6011933e-02   6.6723838e-03
 -3.3746447e-02   7.7913352e-03
 -6.5653384e-02   4.5668678e-03
  8.6010635e-02   2.9551433e-03
 -1.3260812e+00   1.6388699e-03
 -1.4410704e-01   2.9055031e-03
 -4.2572666e-02   6.2618246e-03
  2.4252955e-02   1.0741303e-02
 -3.2009308e+00   1.3620490e-03
  1.0960737e-01   4.1969037e-03
 -1.3824007e-02   1.3385746e-02
  6.5671451e-02   1.5511059e-02
 -1.8635243e-02   8.2560573e-03
 -1.6524759e-03   1.3694176e-02
 -2.4945788e-01   9.6995113e-03
  5.1834740e-02   1.2998752e-02
 -6.9812670e-02   1.8191043e-02
 -1.4456135e-01   1.2953799e-02
 -1.8824885e-02   1.0889166e-02
  4.1546766e-03   9.4678327e-03
  4.4720232e-02   1.9825252e-02
  9.8438468e-04   2.5650814e-02
 -7.9849675e-02   1.9614717e-02
  8.0526754e-02   1.0365538e-02
 -2.3653178e-02   1.0014644e-02
 -2.5243345e-03   4.3956868e-02
  4.6791237e-02   3.2334987e-02
  5.9006236e-02   2.1135712e-02
  4.8807263e-02   1.4419613e-02
 -1.2511498e-01   1.2797281e-02
 -1.7698310e-02   1.3499198e-02
 -6.2204499e-02   1.3830541e-02
  4.5302731e-05   7.8553595e-03
 -4.9246638e-03   2.0609401e-02
  2.0116009e-03   2.3384526e-02
 -1.0400895e-01   7.6006511e-03
  1.7612818e-01   6.2000565e-03
  1.2213712e-02   8.2041528e-03
  1.0230644e-01   3.2900527e-02
  4.0135887e-02   9.3778456e-03
  4.8857193e-02   1.4259555e-02
 -1.9806352e-02   4.1833270e-02
 -6.0445922e-03   1.4084295e-02
 -1.4261489e-01   1.6367495e-02
 -7.3141283e-03   2.8839897e-02
  1.5485468e+00   3.1307903e-03
 -5.2224165e-03   1.1404540e-03
  8.9847076e-01   2.7871635e-03
  8.7393820e-04   1.2865601e-02
  1.3756019e+00   6.4375444e-04
  2.9673493e-03   1.6717730e-03
  1.3380910e-01   9.8196995e-03
  2.8520536e-03   2.1090896e-03
 -4.2045671e-02   9.9257445e-03
 -4.3629743e-02   2.3542434e-02
  7.7025786e-02   3.1709358e-02
 -2.8602451e-01   8.7953330e-04
  6.9807184e-01   1.1733248e-03
  1.5282484e+00   8.0952584e-04
 -2.0531971e-02   2.3343647e-02
  2.9823610e-01   3.9621680e-03
  2.7851373e-01   2.9496471e-03
 -9.2428088e-02   2.0915270e-02
 -2.1476531e-01   3.7397267e-03
 -3.4366332e-02   1.2474031e-02
 -4.9759593e-02   7.1489634e-03
  3.3164001e-03   4.0660645e-03
  3.3298451e-02   1.5614614e-03
  9.5491254e-01   4.5201695e-03
 -3.0207338e-02   6.5642800e-03
  9.8160601e-01   1.2424880e-03
  1.8781206e-02   7.7719227e-03
 -2.9539049e-02   8.5700480e-03
 -5.4471213e-01   6.7732739e-04
 -3.2824805e-01   7.4416108e-04
  1.1257403e-01   1.9467523e-02
  1.2324354e-01   4.1490153e-04
  2.5436163e-01   4.9344677e-04
 -2.4261989e-02   4.8583982e-04
 -2.6202393e-01   3.1667226e-04
 -1.3269044e-01   4.0958327e-04
 -1.2758281e-02   2.0335149e-03
  4.5941684e-01   2.3651772e-04