  3.0737850e-01   8.7621767e-05
 -4.1141085e-02   8.0463407e-04
 -3.2154601e-02   5.8306794e-04
 -6.5244570e-02   9.1352109e-03
 -2.6353590e-02   2.3368481e-04
 -1.3906597e-02   1.2081768e-03
 -1.0274401e-02   1.0415574e-03
 -2.6088573e-02   4.6815709e-03
 -1.0620738e-02   6.7698215e-03
  1.3475733e-02   9.8914104e-03
 -1.4411915e-02   2.5513517e-03
 -1.6830966e-02   1.0452349e-03
 -4.1096177e-02   4.9106334e-03
 -2.4538737e-02   1.8716773e-02
  4.0658571e-02   8.4466711e-03
 -2.3517848e-03   3.9314181e-03
 -2.3090117e-02   2.3418020e-03
  3.1479213e-02   7.4025309e-03
  6.4581148e-03   3.1145345e-03
  1.3221728e-02   6.5879994e-03
 -1.1379474e-04   2.0078229e-04
  4.1839299e-03   5.2483166e-03
  1.0488330e-02   7.3916013e-03
 -5.9421036e-02   5.3818966e-03
  1.7410610e-02   8.1839971e-03
 -2.0044740e-02   1.2781143e-02
  1.2094728e-02   6.4130948e-04
 -1.4608090e-02   6.4868284e-03
  1.0382828e-02   5.3883358e-03
 -2.1048959e-02   3.0393284e-03
  5.3148624e-02   6.9203512e-03
 -2.3409771e-02   1.6926503e-02
 -9.5776441e-03   2.6373926e-03
 -1.4569566e+00   3.1245206e-04
  8.9600059e-04   1.2065712e-02
  4.5148812e-02   7.0290365e-03
  7.9834263e-04   5.3808088e-03
  1.1038103e-02   2.7803520e-03
  1.0497348e-01   8.4040163e-04
  8.0344956e-03   7.5001586e-03
 -3.0156080e-02   6.5187691e-03
  4.4131752e-02   1.0176018e-05
 -5.0518173e-01   2.5643708e-04
  1.0944004e+00   5.7600308e-05
  1.1626271e-01   4.7550360e-03
  1.4264760e+00   2.2826498e-04
 -7.7088940e-01   1.6075961e-04
 -2.3747517e-01   1.0220308e-04
  1.0089889e+00   1.5219154e-04
 -7.9588544e-01   6.7798630e-04
  1.2460513e+00   1.4979171e-04
  3.1030256e-01   1.3512853e-04
  6.2319016e-01   1.0587918e-05
  5.1951253e-01   2.9095102e-04
 -7.7581835e-01   4.1888419e-05
  3.7681499e-01   2.1819792e-04
  4.9891204e-02   9.0635242e-03
  1.2909926e-01   2.4730084e-03
  2.8384033e-01   2.5869815e-03
 -1.4927183e-02   5.8224075e-03
 -5.9835754e-02   2.8934476e-03
  4.1053567e-02   3.4362315e-03
 -3.1376228e-02   3.5411732e-03
 -3.0518880e-03   5.0759921e-03
  7.8170560e-02   5.4557825e-04
  1.2712526e-01   9.9125155e-04
 -1.7664636e-02   4.0890183e-03
 -1.1342837e-01   6.9155972e-03
 -7.6088734e-02   2.2115730e-04
  2.5604641e-01   3.3578801e-04
  3.9658036e-02   1.3191490e-03
 -2.2175862e-02   1.4709873e-03
 -4.8069809e-02   7.8248755e-05
 -1.8948209e-03   5.3803893e-03
  5.2766982e-02   8.0410013e-04
  1.2068012e-01   5.9891643e-04
 -1.2451111e-01   2.6233981e-03
  9.8226769e-03   7.7095055e-03
 -1.1390175e+00   1.0011243e-03
  2.2029291e-01   1.2682938e-03
  1.9065250e-01   5.1429629e-04
  6.6417134e-01   4.7799299e-04
 -1.8669719e-01   2.2233160e-04
  4.6773195e-02   2.3769354e-03
 -3.4277529e-01   2.0215582e-04
 -3.2981895e-02   2.0704193e-03
  1.8522754e-02   5.9042842e-04
  1.6018892e-02   2.7522012e-03
 -2.8564304e-01   7.0768781e-03
 -1.3199109e-02   4.6707820e-03
 -1.7035631e-03   2.0850664e-03
 -9.5417994e-01   5.5736036e-04
  9.6656561e-02   8.1066991e-04
 -1.4536084e-02   5.8532698e-04
 -2.2510411e-02   2.4056347e-04
 -1.5363376e-02   1.5539287e-02
  7.1477061e-03   1.0207179e-02
 -1.0363605e-02   2.7805925e-03
  2.7514040e-02   2.3698155e-03
  4.6866696e-02   1.3214051e-03
  7.1775606e-03   1.7868410e-03
 -1.6207127e-02   4.1928147e-03
 -3.8279124e-02   9.8488582e-03
 -7.9316184e-02   5.4259086e-04
  1.0447726e-02   9.3753735e-04
  2.8189490e-02   4.0212022e-03
  4.3313342e-01   7.6358119e-04
 -3.9439020e-03   4.3875696e-03
  7.2445166e-03   7.0644272e-03
  9.0015978e-03   7.3339166e-03
  2.9496849e-03   6.7938687e-03
  8.7707033e-03   5.6822351e-03
 -1.4689614e-02   3.3463952e-03
 -2.7875569e-02   7.8211362e-03
 -1.6891066e-02   9.5521053e-03
 -1.0212898e-01   6.3205732e-04
 -8.7656110e-04   9.5391355e-04
 -8.2645081e-03   1.9197131e-03
 -8.4060375e-03   4.2890552e-03
 -5.2592576e-02   6.1863414e-03
  1.0435699e-02   1.0792138e-03
  8.9163642e-04   4.5168772e-04
  4.1758697e-03   5.0141942e-03
  2.6729378e-01   2.0828054e-05
  2.8273052e-01   5.1871368e-05
  8.3145332e-01   3.7193742e-05
 -3.4009871e-01   7.7160500e-04
  6.2889226e-02   5.0578514e-05
 -1.6209871e-01   7.4294083e-05
 -1.2132935e-01   7.6230273e-05
 -5.1428974e-01   7.8137382e-05
  9.3403146e-02   2.5527857e-04
 -7.2840549e-02   2.1090817e-04
 -6.9975775e-01   4.5216304e-05
  1.5376368e-01   1.5440577e-05
  2.0303041e-02   6.8333669e-05
  6.7572244e-02   3.0686185e-03
  8.5746489e-02   2.5376731e-03
 -4.9478654e-03   1.4800134e-02
 -1.0602956e-01   1.5021936e-03
  1.1256240e-01   7.9680333e-04
  2.8830231e-03   8.3911801e-03
 -8.3695568e-02   8.0603538e-03
 -5.3923838e-03   4.5660388e-04
  5.9019051e-02   3.9616148e-03
 -1.2808982e-02   2.8441804e-03
 -6.6047452e-02   1.8933549e-03
 -3.3731312e-01   2.2279662e-03
 -9.1276839e-02   1.8119359e-03
 -5.7123456e-02   3.2204515e-03
 -2.5791711e-01   5.3591043e-04
  3.3854648e-02   1.8501483e-03
 -1.4415301e-02   4.0327120e-03
  9.6131727e-02   1.5307948e-03
  5.1705480e-02   2.6407321e-03
 -9.3404325e-03   6.1018360e-03
  3.7296989e-04   1.7027491e-03
  4.6517123e-02   1.1746595e-03
  6.5792874e-02   2.3704376e-03
 -1.8279996e-02   5.0344761e-03
  2.0969503e-01   1.7654927e-03
  8.9325376e-02   4.2216887e-04
  1.3903621e-02   3.7265744e-03
 -5.2976571e-02   3.6699313e-03
  3.4995961e-01   1.3613895e-05
 -4.9056374e-02   1.2651936e-03
 -1.3012108e-01   3.5315112e-04
  5.5340141e-02   1.0683998e-02
 -1.2872189e-01   2.9306169e-04
 -3.8887996e-02   9.3875133e-05
 -1.7891955e-02   5.7720585e-04
 -3.3737442e-03   4.9834145e-04
 -3.8544104e-02   3.0699186e-03
  1.0517810e-02   1.2637372e-03
 -7.5406782e-02   8.4888370e-04
 -4.8978347e-04   3.7240793e-04
 -1.3792570e-01   5.7034276e-04
  2.4134295e-02   1.0362742e-02
 -7.8710215e-03   5.1486422e-03
  1.3864897e-01   1.9873960e-04
 -3.6142822e-02   2.5750883e-03
  4.0824998e-02   3.4880347e-03
 -4.5338115e-03   1.1452445e-02
  4.9688416e-03   6.8590720e-03
  1.7586963e-02   1.0632445e-03
  1.9120292e-03   7.1249334e-03
 -2.7155224e-03   3.4500558e-03
  4.2981571e-03   3.4324485e-03
  1.6786341e-02   1.0360668e-02
  1.1552598e-02   1.3986409e-03
 -1.2075109e-02   2.4710095e-03
  2.4500976e-03   1.9445749e-03
 -2.1197271e-02   2.8453949e-03
  1.4777396e-02   4.9115391e-03
  3.7433635e-02   5.5135554e-03
 -1.3267688e-02   6.9952835e-03
  7.6838456e-02   6.6125831e-03
  1.6702702e-02   2.2551275e-03
 -6.8979994e-03   1.1222173e-03
 -1.9169128e-03   8.5382620e-03
  1.9197270e-02   1.0324830e-02
  1.2467476e-02   4.3295603e-03
 -6.0398513e-03   1.9368242e-03
 -1.1249218e-02   1.2708568e-02
  1.9070029e-02   8.7127769e-03
  1.0386287e-02   6.2456915e-05
 -8.2220510e-02   4.5331827e-04
 -2.8800949e-01   1.8143983e-04
  1.7397430e-02   7.9767881e-03
  1.0244462e-01   5.9130060e-04
 -4.8433907e-02   6.9223240e-04
  1.5928543e-01   4.2094546e-04
  6.2461369e-02   1.3885234e-03
 -2.4560694e-02   7.9549366e-04
  2.0917618e-01   2.1132159e-03
  1.9956976e-02   3.5657655e-04
  3.5515890e-01   1.0716290e-05
 -1.4461106e-02   6.1637070e-04
 -3.1863239e-02   2.9679495e-03
  4.3136002e-03   4.1665062e-03
 -7.3918244e-03   9.3966881e-03
 -1.3638581e-01   6.9078105e-03
  5.9023295e-02   8.1123784e-03
  1.6535621e-02   7.1794535e-03
 -1.6296091e-02   5.9507843e-03
 -2.8530251e-02   7.4483217e-03
 -5.5334419e-02   2.3797241e-03
  1.7166613e-02   5.9210840e-03
 -7.1840204e-02   4.6654991e-03
 -1.1854697e-02   8.8164641e-04
 -2.4236616e-02   6.4437613e-03
 -2.0252580e-02   8.5406909e-03
 -2.1913605e-02   2.8486664e-03
 -9.6810304e-02   1.1662190e-03
  4.1730851e-03   5.0395811e-03
 -2.4684525e-01   3.9174892e-03
 -2.4193614e-03   4.1889868e-04
 -7.7195093e-03   7.9215514e-03
 -3.1177916e-02   9.9486392e-04
 -3.1720608e-02   3.0248335e-03
 -1.0909382e-03   3.7323576e-03
  1.9543828e-02   1.4493845e-03
 -9.4287753e-02   3.2358177e-03
 -1.1011825e-02   4.3846923e-03
  2.3152161e-02   4.1725812e-03
  9.1884285e-03   5.4351711e-03
  2.2899488e-02   2.3475764e-05
 -2.1344094e+00   6.2188694e-05
 -1.9091614e+00   2.4112087e-04
 -1.7246526e-01   8.9437282e-04
 -1.1788771e+00   1.8407826e-04
 -3.3461475e-01   1.0105999e-04
  6.5227783e-01   1.1534782e-04
  7.4167347e-01   3.5081137e-04
 -1.2642516e-01   1.6678544e-03
  3.7720001e-01   1.1049194e-03
  5.7387841e-01   4.3648307e-04
  1.3466942e-01   9.0134097e-05
  6.1121327e-01   2.4266982e-04
 -2.1133286e-01   7.8424031e-04
  1.3043737e-01   2.6417479e-03
  3.8421858e-02   1.1446523e-02
 -3.8790968e-01   1.4393652e-03
 -1.6970014e-02   2.4608593e-03
  2.4869200e-03   1.2506786e-03
 -2.7069658e-02   5.5443933e-03
 -1.0495001e-01   2.8360605e-03
  8.4489904e-02   2.7585295e-03
  3.8580291e-02   1.7059010e-02
 -3.7753737e-01   3.9692079e-03
 -1.7352432e-03   1.9626701e-03
 -2.1671373e-02   6.4928583e-03
 -3.2079383e-03   4.2534000e-03
 -5.0049472e-01   3.3946286e-03
 -6.1089296e-02   3.1400770e-03
 -2.7488638e-02   5.9340205e-03
 -1.3277978e-01   5.0374712e-03
 -1.2594797e-01   1.4483033e-03
 -2.6868908e-03   4.3797623e-03
 -2.7671300e-02   4.0467973e-03
  4.8904758e-02   3.3234886e-03
 -1.3730554e-01   1.7717396e-03
  1.7323406e-02   1.5202063e-02
 -2.9869422e-01   2.7941824e-03
  2.8113416e-01   2.8003225e-04
  2.4503036e-03   3.3379397e-03
  1.0476447e-02   7.8197075e-03
  2.4238063e-01   2.0979563e-05
  4.2624906e-02   1.9946520e-04
  8.9555073e-01   5.4879292e-06
 -7.8451747e-01   4.4582059e-04
 -2.0686629e+00   7.9936392e-05
  7.3580265e-01   4.2154800e-04
 -1.7974925e-01   9.8805998e-05
 -1.0262455e+00   1.4547177e-04
  3.8627899e-01   7.5605500e-04
  4.0833822e-01   5.7909980e-05
  8.1485945e-01   2.7670423e-04
 -1.0088593e+00   4.9592778e-05
  3.6684942e-01   3.8291156e-04
 -3.8179782e-01   1.1484383e-03
  1.8581355e-03   1.7557821e-03
 -5.7394236e-01   9.6457684e-04
 -6.8433555e-03   9.8588713e-04
  1.2064586e-01   2.3657961e-03
  5.8489095e-02   6.2437356e-04
  2.5000098e-01   4.8414809e-03
 -7.0045644e-01   1.7811501e-03
 -2.5763962e-02   1.5395825e-03
 -3.5135234e-03   2.6260049e-03
 -7.0345931e-02   7.8905391e-04
 -1.5294361e-01   2.3194491e-03
  2.5913739e-01   8.4711099e-04
 -1.8008122e-01   3.5187218e-03
 -3.3394831e-01   8.3825528e-04
  2.0795909e-03   2.4674699e-04
 -4.9515134e-01   1.4774774e-03
  2.5041580e-02   1.3953083e-03
 -7.7926356e-01   9.6410932e-04
 -1.6818514e-02   3.1078539e-03
  1.0101813e-02   4.6030525e-03
  1.1782218e-02   3.8365516e-04
  5.5009662e-03   4.1172962e-04
  1.5998384e-01   4.2898589e-04
 -1.5610009e-02   2.0927275e-03
 -2.5309581e-01   2.0696216e-03
 -1.1037812e-01   2.1296470e-04
 -4.9644876e-02   3.5742240e-03
 -1.4418414e-01   3.8515296e-05
  5.3526624e-03   1.8409740e-04
  1.3932325e-01   2.7080369e-04
  6.7655388e-03   5.3498535e-03
  9.2733961e-01   5.6665268e-04
  3.3950273e-02   4.4699709e-04
 -1.1571366e-01   2.4738758e-06
 -3.8755942e-02   4.8001227e-03
  4.9866334e-01   4.7369514e-04
  2.5304744e-01   4.1241304e-04
  4.9400986e-03   6.2603790e-06
  5.5992359e-01   1.2841045e-04
 -2.8677445e-03   9.9955755e-04
  2.0014676e-01   3.5024784e-04
 -9.7656921e-02   2.0399180e-03
 -2.8653992e-03   9.2775710e-03
 -3.3269060e-01   2.0831046e-03
  2.2341341e-01   3.6119653e-03
 -1.8888576e-03   1.9897546e-03
  2.1889461e-02   3.0541753e-03
 -1.2260162e-01   5.6206882e-03
 -3.0790383e-01   1.4848649e-03
 -2.3095358e-02   5.7671120e-04
 -3.0972719e-01   5.6306571e-03
 -2.5082823e-02   7.1285572e-03
  1.3069006e-02   4.8325919e-03
  6.3037598e-03   6.5527712e-03
 -4.1183338e-01   2.7852862e-03
 -1.7406113e-01   1.1228702e-03
 -1.2113788e-02   1.0208824e-02
 -5.3606766e-01   8.1373891e-03
  1.5206951e-02   5.6543867e-03
  2.9449934e-02   1.8636284e-02
  4.3743309e-03   4.8457622e-03
 -1.6158264e-02   3.8107005e-03
 -1.1878667e-02   3.1669738e-03
  8.1563994e-02   7.1372017e-03
 -6.8501109e-01   5.9119468e-03
  6.4797252e-03   1.0156790e-03
  3.9945666e-02   1.9162078e-03
 -9.8556736e-03   1.4346606e-03
  4.5924848e-01   6.4141161e-05
  8.1593469e-02   8.8871992e-04
 -2.0493235e-01   2.9056959e-04
 -2.3648679e-02   1.2502703e-02
  2.8709498e-01   3.6357675e-04
 -1.6662760e-01   4.0904319e-04
 -1.5311263e-02   5.2027882e-04
 -2.5008835e-02   7.6651474e-04
 -1.2978142e-02   4.8324667e-04
  9.7832412e-02   1.5035650e-03
  3.5985529e-02   2.6976320e-04
  2.0655200e-01   4.9539236e-04
 -1.6254385e-03   4.9623696e-04
  7.1591027e-02   6.6447211e-03
 -5.3473018e-02   4.1491564e-04
 -1.0704554e-02   2.3116963e-03
 -4.3691825e-02   5.3993245e-03
  1.4567881e-02   3.1492079e-03
  4.0860805e-03   3.4222750e-03
 -1.3860312e-03   2.5242134e-03
 -4.9481545e-02   2.4793684e-03
  8.4655825e-03   3.4758416e-03
  3.4362253e-02   2.4702158e-03
  1.3823082e-03   1.2176779e-02
  3.3054858e-02   3.4815448e-03
  4.4686079e-02   4.0158476e-03
  9.6875720e-04   1.9762469e-03
 -5.6598238e-03   4.5999130e-03
 -2.5175279e-02   7.8080255e-03
 -1.4140430e-02   3.8596804e-03
  3.3524539e-03   2.6218160e-03
  1.3707167e-02   7.4548805e-03
  3.7999850e-02   5.2776840e-03
  3.7513780e-03   9.0909936e-03
 -3.2802019e-01   5.2222889e-04
 -4.2698052e-02   4.9293094e-04
 -2.8233049e-02   4.9817818e-03
 -4.4896573e-02   1.0197409e-03
 -4.0060781e-02   1.9110190e-03
 -1.6635561e-02   1.5022374e-03
  2.0113433e-02   6.6834847e-03
 -6.2501150e-01   1.4673713e-04
 -2.2592689e-03   8.6023228e-04
 -1.7500345e-01   4.6859241e-05
  1.6415545e-01   8.2206848e-04
 -7.1374476e-02   3.5933190e-04
  1.6727746e-02   1.1578201e-03
 -2.5274694e-02   6.5756624e-04
 -2.8179896e-03   5.9975783e-04
  7.0266418e-02   1.1833406e-03
 -6.4864710e-02   1.5949924e-03
 -1.7613649e-02   4.3270848e-04
 -1.7005752e-01   1.4635832e-04
 -3.7126232e-02   1.3160092e-03
  7.5996593e-02   2.1119514e-03
  2.4687435e-02   5.0590106e-04
 -4.4401184e-02   1.0932839e-03
  5.4857102e-03   4.9429294e-03
  6.3427812e-03   8.9326138e-03
  3.9873701e-02   6.5418691e-03
  7.7162310e-03   1.3025832e-02
 -2.5448173e-02   2.7577239e-03
 -2.0569906e-02   7.0084892e-03
 -8.6090192e-02   1.6590176e-03
 -1.4921115e-01   2.5539843e-03
  9.6841976e-02   1.5557734e-03
 -5.0033074e-02   2.6966119e-03
  3.2795906e-02   1.4822642e-02
  4.4129342e-02   1.8353736e-03
  8.9252582e-03   2.4160647e-03
 -2.3760637e-03   5.0139367e-03
 -2.2549528e-01   1.3773925e-04
  3.0977618e-02   5.5259867e-03
  8.7887689e-02   2.4153674e-03
 -3.4123478e-03   6.1852904e-03
 -2.3323174e-03   2.4571894e-03
  2.7141115e-02   1.6783666e-02
  4.8999321e-02   2.0165297e-03
  1.3734525e-01   1.0602360e-03
  7.7599473e-03   2.3936336e-03
  9.1283917e-03   1.2231234e-03
 -2.6637554e-02   1.5657146e-03
 -1.3162008e-01   8.9658517e-04
 -6.1257008e-02   3.2509924e-03
 -4.4085324e-01   2.2810500e-04
 -6.3768536e-02   1.4704466e-03
  2.1622580e-01   9.9643378e-04
  5.9124231e-02   1.6892930e-03
 -3.8357258e-02   8.0403909e-03
  3.4316897e-02   6.3040475e-03
 -3.1824816e-02   5.3582564e-03
  5.6912113e-02   3.0251741e-03
  5.3681251e-02   1.5425257e-03
  7.3417552e-02   1.9796588e-03
  9.3752712e-02   5.8846474e-03
 -3.6408436e-02   7.8375265e-03
  3.2294583e-02   5.0494950e-03
 -3.7960969e-02   5.9709623e-03
 -3.0337151e-02   3.1762740e-03
  2.0822084e-01   2.2257592e-03
 -2.9523319e-02   2.9777403e-03
  1.2417293e-02   4.7714278e-04
  6.4999228e-03   7.8300806e-03
  6.6366815e-04   6.2073404e-03
  2.7218822e-02   3.4138290e-03
 -1.4689144e-02   2.3047272e-03
  2.5833333e-03   3.0231616e-03
  1.5780194e-02   3.3469957e-03
  6.1034866e-02   8.2475143e-03
  3.5080761e-03   6.6867820e-03
  2.1786855e-03   2.6623912e-03
  2.2925843e-02   1.3650189e-02
 -1.2520527e-02   8.1206122e-03
 -1.0757810e-02   2.8262513e-03
  1.3580270e-02   4.0639518e-03
 -3.3535376e-02   1.2786486e-03
  1.1481012e-02   5.8675553e-03
  2.9022228e-02   4.6904334e-03
  3.2196153e-02   1.1067211e-03
 -4.7425456e-02   8.3267654e-04
 -4.1860092e-02   1.2621967e-03
 -1.9047866e-03   3.3258472e-03
 -7.2395101e-02   7.2246348e-04
  1.3554661e-01   1.3915186e-06
 -8.8967419e-01   1.0338961e-05
 -8.0582753e-02   1.1954427e-05
 -6.1821908e-02   1.2635206e-03
 -3.8899931e-01   7.8457990e-05
 -1.1814449e+00   3.9004299e-05
  7.7181703e-01   7.0115580e-05
 -3.1270692e-01   6.2475825e-05
 -1.7327356e+00   3.2094456e-04
  5.3244287e-01   1.3995607e-04
 -4.5344421e-01   2.4378860e-05
  1.7747775e-01   4.0202918e-05
  4.7031787e-01   5.0957675e-05
 -1.5192899e+00   4.8026739e-04
 -5.0070244e-01   4.7232479e-05
 -1.2659304e-02   4.1290075e-03
  4.0569282e-01   5.1899624e-05
 -2.0354569e-02   1.4767073e-03
  7.6523190e-03   4.3294341e-03
  2.6160786e-01   2.0810531e-03
 -1.5312465e-03   8.3574402e-04
  6.5496838e-01   7.5330783e-04
 -8.6167127e-02   1.4512090e-03
 -4.2664757e-01   1.1636621e-03
 -5.2172452e-02   6.5058901e-04
  3.8984325e-03   3.8204661e-03
 -7.7524342e-02   1.9382767e-03
 -2.0136230e-01   6.6730828e-04
  6.1412376e-01   4.4912432e-04
  1.1203808e-02   8.3606094e-03
  3.1558180e-01   6.1543513e-04
 -6.4946465e-02   3.1158677e-04
  1.6691259e-01   7.6074415e-05
 -2.2182538e-01   8.2509045e-04
  1.8236541e+00   8.0816018e-05
 -1.6832101e+00   4.5597879e-04
 -1.6624674e-02   1.0903310e-03
  1.7007208e+00   4.1393033e-04
 -1.9514035e-01   1.6580280e-04
  5.6967144e-03   2.1802522e-03
  9.0885863e-02   3.9924523e-03
  1.7085887e-01   8.8981205e-06
  3.5391542e-01   1.6504165e-04
 -4.1345066e-01   3.3168410e-05
  1.7046955e-01   9.4669859e-04
 -5.2902585e-01   1.2178299e-04
  6.8193221e-01   3.6864963e-05
 -7.1278915e-02   1.5567805e-04
 -4.7781786e-01   3.5509482e-04
 -3.7077466e-01   1.6148271e-04
 -2.5200111e-01   3.4918761e-04
 -5.5311777e-02   4.7539452e-05
  2.2082497e-01   1.9921474e-05
  8.7841868e-02   2.4235214e-04
  2.0425221e-01   1.9189083e-03
  4.4400260e-02   2.2958706e-03
  3.6528822e-02   7.1737254e-03
  2.5058392e-01   1.3264872e-03
  1.9232561e-01   1.6333563e-04
  2.0373917e-01   6.4593263e-04
  4.3840177e-02   2.4314879e-03
  4.1343027e-01   2.8326528e-04
  6.5144263e-02   8.6869794e-04
 -1.6571196e-02   1.2282453e-03
  5.4066837e-01   1.2083849e-03
 -9.6908994e-03   2.1480771e-03
  2.1210639e-02   8.0143176e-03
 -5.6172609e-02   3.5626818e-03
  4.1184700e-01   1.8013093e-03
  6.2243178e-02   2.2452248e-03
  1.3058767e-02   4.8236055e-03
  1.5368965e-01   9.3616860e-04
 -8.7288963e-03   9.5993927e-04
 -1.9803327e-02   6.4337370e-04
  5.8961935e-02   1.0725760e-03
  7.5173132e-02   1.7597487e-04
  5.5550609e-02   2.1981793e-03
  1.8912863e-02   3.2762375e-03
  1.1644728e-01   6.4486061e-04
 -1.7233193e-01   1.6174804e-04
  6.3793600e-02   4.9498351e-03
 -1.8058911e-03   1.0492622e-03
  1.4439860e-01   4.1795423e-04
 -6.5561213e-02   1.1557397e-03
  1.7931704e-01   6.8896776e-04
  6.7757547e-02   3.1033705e-04
  1.2046656e-01   5.9464213e-04
 -6.1675708e-04   6.4428118e-03
  2.2958599e-02   7.1412604e-04
  9.8787369e-03   4.8724571e-03
  3.1483991e-03   1.3857028e-03
 -3.7409432e-02   2.4855183e-03
 -7.3129553e-03   1.3060515e-03
  1.2551905e-01   4.8489764e-04
  1.2361617e-02   3.0751436e-03
  1.8262401e-02   6.8005692e-04
 -6.1350088e-03   3.5403885e-03
  1.0002459e-02   1.2809371e-02
 -2.2365784e-02   1.8149695e-03
 -2.3666525e-03   5.4461029e-03
 -2.8312562e-02   4.0133484e-03
  2.6804680e-02   8.4641669e-03
  3.1746618e-02   1.8534132e-03
  3.6805067e-02   1.3885720e-02
 -8.7647671e-03   7.6983008e-03
 -9.0347547e-03   5.7012541e-03
 -1.9406673e-02   4.7872378e-03
  3.6185952e-03   3.5794284e-03
  8.1953071e-03   5.3269872e-03
 -1.8055496e-03   3.2975939e-03
  4.5605171e-03   1.1844378e-02
  5.8213763e-02   9.7833565e-03
 -4.8192283e-03   2.8996251e-03
 -2.0197752e-01   3.4863516e-04
  2.0294752e-02   5.6966804e-03
  2.5681373e-02   2.6843124e-03
 -2.0071771e-02   4.7470722e-03
 -1.5067473e-02   2.7167327e-03
  1.6955929e-02   6.7168940e-03
  9.9001536e-03   3.4014916e-03
  1.6242027e-02   3.6939075e-03
  3.4237619e-02   2.9641420e-03
 -4.9894992e-03   4.2633368e-03
 -3.6513880e-01   3.8615606e-05
 -3.4423392e-02   9.8995259e-04
 -2.0171130e-02   2.0184887e-04
 -2.0072830e-04   4.2735157e-03
 -7.5681158e-03   3.4792794e-04
  3.3662643e-02   5.9231473e-03
 -4.4083606e-02   3.1977796e-03
  6.9450806e-03   3.3074273e-03
  3.7207991e-01   2.8565631e-04
 -8.2238708e-03   1.0476016e-02
  1.7792885e-03   1.1731995e-03
  1.3180332e-02   4.8407167e-04
  1.9840630e-02   2.2053653e-03
  3.9825913e-02   6.4192072e-04
 -1.7741874e-02   1.3030653e-02
 -3.0375345e-02   2.1034835e-03
 -1.1072002e-02   8.9416439e-03
  4.0158268e-02   4.0922253e-03
 -9.6698999e-03   8.9717610e-04
  5.5678282e-02   4.2545986e-03
  1.0519628e-03   1.4250014e-03
 -4.7214933e-02   3.0833029e-03
  8.8901329e-04   9.5695546e-03
 -2.9172318e-02   4.3434831e-03
  7.1179080e-03   5.8531263e-03
 -7.3671428e-05   8.9206110e-04
 -2.8295206e-02   3.9269156e-03
 -1.3065084e-02   1.1605866e-03
 -7.0568365e-03   1.8452746e-03
 -5.5658696e-03   3.1642686e-03
 -4.9188086e-03   2.2877385e-03
 -3.0760489e-02   5.0567319e-03
 -6.6336370e-03   2.5170909e-03
  3.5634615e-02   9.4020339e-03
  5.0335610e-03   9.3175443e-03
 -1.5879005e-02   2.4802720e-03
  1.2102116e-02   8.6464481e-03
 -2.5756063e-03   1.6884283e-03
  1.1817710e-02   6.5780520e-03
 -4.3347129e-01   1.5369300e-03
  2.6348161e-02   9.8144887e-03
 -5.0807869e-01   1.3768849e-05
 -4.6539593e-02   7.3509431e-04
 -4.7258064e-01   2.3976017e-05
  6.4501679e-01   2.9183441e-04
  2.0286499e-01   9.5068521e-05
  1.5433174e-01   2.7879485e-04
 -4.8053312e-01   3.9126160e-05
  1.3332580e-01   1.7338080e-04
 -1.6515051e-01   3.7068024e-04
 -4.7981986e-01   5.6461373e-04
  4.1357261e-01   9.6836055e-05
  7.9506896e-02   1.1091666e-04
  1.5980814e-01   7.2968664e-04
  1.3571119e-01   1.0564497e-03
  4.1182216e-02   2.3386828e-03
  3.6531627e-02   1.4629355e-04
  1.0739652e-01   1.6232586e-03
 -3.3410955e-03   3.5967368e-03
  8.0937505e-02   4.0996177e-03
  7.7672414e-02   3.5048577e-03
 -1.3863119e-01   5.6649663e-04
  3.1639377e-04   4.3493151e-03
 -2.2608092e-01   1.4591651e-03
  1.7752958e-02   1.6916256e-03
 -6.4931355e-02   8.8275922e-04
 -4.8918989e-03   1.6060825e-03
  2.9870083e-03   2.1913948e-03
  1.8750483e-01   9.9214958e-04
 -4.1236546e-02   3.6481777e-03
  3.7890872e-01   9.1424782e-04
 -9.2240117e-02   4.1365295e-04
  8.4963523e-02   2.6522707e-03
 -1.1953229e-01   2.5805663e-03
  2.0508420e-02   5.4568792e-04
  1.8826756e-01   1.3715122e-04
 -1.0468003e-02   1.7762266e-03
  9.0973519e-02   5.3280167e-04
 -3.9297122e-01   3.0591439e-03
  5.4329202e-02   7.3837320e-04
 -1.1950223e-02   3.1533727e-04
 -4.9433149e-03   1.5845723e-03
 -2.9000488e-01   4.6987767e-05
  4.3474466e-01   8.3122832e-05
  5.5882692e-01   1.5806785e-04
 -4.3516237e-02   5.5715423e-03
  4.6328936e-02   5.4468896e-04
  2.9024497e-01   7.7444878e-05
 -7.2767019e-02   2.5350464e-04
 -3.1080917e-01   4.3770185e-04
 -9.0938425e-03   4.7665913e-04
 -1.6578750e-01   8.8824646e-04
  3.4812534e-01   2.1000936e-04
  4.2280927e-02   1.1964225e-04
  1.2828781e-01   4.6895005e-04
 -1.0829496e-01   3.4893223e-03
  6.7289509e-03   9.7060306e-03
 -3.2187346e-02   4.0379916e-03
  1.1932490e-02   3.0958208e-03
 -9.2076041e-02   4.6831141e-03
 -4.9247015e-02   3.6596532e-03
  2.6487501e-02   3.8206340e-03
  4.0049814e-03   4.6790950e-03
  1.8588538e-04   8.5100904e-03
 -5.1620580e-02   7.0940065e-03
 -1.1104642e-02   7.7001611e-03
 -8.6787798e-02   6.0490114e-03
 -1.2843373e-02   1.3036309e-02
  6.4765378e-03   8.4077362e-03
 -9.0216585e-03   2.1480229e-03
  1.6637316e-02   6.1457693e-03
 -2.0688860e-02   1.0878579e-02
 -1.2581517e-02   4.3767950e-04
 -1.9972689e-01   5.1518367e-04
  9.5224492e-03   9.6224509e-03
  1.3937032e-02   9.8939426e-03
 -4.6882302e-02   1.9127360e-03
 -1.9713366e-02   2.1821985e-03
  1.0181731e-02   2.9428173e-03
 -1.8474804e-01   5.4978300e-04
  8.5299006e-03   2.7532380e-03
 -6.6056638e-03   8.4927166e-03
 -4.9631856e-02   3.8488749e-03
 -4.7196665e-01   2.4624399e-04
  2.5385447e-02   3.7511371e-03
  4.7503676e-02   4.8192484e-05
  2.9069174e-02   5.3177756e-04
 -1.4400041e-01   1.5639778e-03
  1.3654180e-02   4.9107997e-03
 -5.4212939e-02   7.0551486e-04
 -7.4585574e-03   4.2230417e-03
 -7.5500853e-02   1.9376326e-03
  4.4238637e-03   9.0126926e-03
  1.2337600e-02   1.1826558e-03
  4.8287075e-02   1.6675518e-03
 -3.7492414e-03   3.0474681e-03
 -2.5385132e-01   7.7870715e-04
  1.0463112e-02   2.4879582e-03
  4.8408308e-03   4.8699505e-03
  4.9324233e-02   3.0784176e-03
 -4.2015959e-02   5.4222979e-03
 -1.8842472e-02   4.6394132e-03
  2.3913991e-02   1.8173086e-03
  5.2297331e-02   1.3194881e-02
 -2.0791892e-02   6.6383267e-03
  3.3773351e-02   3.1595554e-03
  6.5400042e-03   7.3375381e-03
 -5.0352970e-03   4.3225084e-03
  3.4519121e-02   2.0401545e-03
 -8.3639217e-04   7.2748652e-03
 -1.2424915e-02   4.9693731e-04
  1.3421474e-02   6.5680193e-03
 -4.9467920e-03   8.3652493e-03
 -5.7850452e-04   6.9997343e-03
 -5.9322245e-02   3.1733981e-03
 -2.8464548e-02   1.0294913e-02
 -8.8964082e-02   2.7255833e-03
 -1.0599977e-02   3.5933389e-03
  1.2798206e-02   6.0099871e-03
  2.2447053e-02   1.2361768e-03
  8.6939463e-04   8.2560340e-03
 -5.0117064e-02   9.6804620e-04
 -2.9629139e-02   6.1481507e-03
 -3.4178145e-02   9.4748577e-03
  3.0650535e-01   3.6248570e-05
 -9.2612982e-01   4.1332099e-04
 -2.4700859e-01   9.0872945e-06
 -1.5723380e+00   8.3970703e-04
  8.5527378e-01   3.8464328e-05
  1.8819657e-01   2.6510985e-04
  6.3378930e-02   9.8430878e-04
  1.8242662e-01   1.2328396e-04
  4.7333393e-01   1.4615766e-03
 -2.8731993e-01   4.0952011e-04
  6.9309883e-02   2.6826287e-04
  1.1271456e-02   1.2800327e-04
  6.1759466e-01   2.6709674e-04
  2.1354962e-02   4.2295065e-03
 -5.1465750e-02   2.3547185e-04
  6.3131070e-03   2.2735649e-03
 -3.1483266e-01   2.7873626e-03
  1.9033371e-01   3.7177701e-03
 -3.5848293e-02   4.5646182e-03
  2.0665992e-02   6.8784767e-04
 -1.4754204e-01   3.4375240e-03
 -2.3424048e-02   6.5828167e-04
  6.9653697e-02   4.6013850e-03
 -2.2814208e-01   4.2099310e-03
 -3.5259100e-03   1.7038292e-03
  1.6202129e-02   1.7819481e-04
 -7.2042398e-02   3.1477246e-03
 -2.8132083e-02   2.8786429e-03
  5.3290952e-02   1.1926983e-03
  7.3182383e-03   2.7377051e-03
 -8.4967185e-03   4.3053753e-03
  3.9226014e-02   2.5890633e-03
  1.4578504e-02   2.0039899e-03
 -3.9697133e-02   3.8693505e-03
 -1.7343731e-01   4.1201076e-04
  3.8990998e-03   5.2611344e-03
  4.3264724e-02   2.5919387e-03
  2.7099961e-01   2.3652702e-03
  7.4850535e-04   1.7346818e-03
  5.2385263e-02   1.2679299e-03
 -1.0153762e-02   2.2162867e-03
 -5.1656210e-01   7.6647892e-05
 -3.4367150e-01   1.4891807e-03
 -1.1411846e-01   1.7968221e-05
  2.4565391e-02   4.1641013e-04
 -5.4338807e-01   4.6745638e-05
  1.0101429e-01   1.0253821e-03
 -8.1911214e-02   8.9577673e-04
 -1.7531397e-02   1.2792256e-03
 -3.9544389e-02   1.0608333e-03
 -1.4781933e-01   1.9815087e-03
  6.9303714e-02   3.8564819e-04
  9.0414118e-03   5.1356759e-04
 -3.7817296e-01   1.0039883e-03
  8.7457933e-02   1.1162325e-03
  1.8819623e-01   1.4736081e-03
 -4.0796373e-02   1.1518035e-02
 -1.1035129e+00   5.1673595e-03
  1.0011426e-02   9.3654171e-04
  4.2178873e-03   7.1017300e-03
  2.5215950e-02   2.0664036e-03
  1.3863686e-02   4.5496407e-03
 -2.7178494e-02   6.1421497e-03
  8.8574551e-03   6.1056600e-03
  8.1361886e-03   3.3785645e-03
 -4.4693928e-02   1.1093032e-03
 -2.1650551e-01   6.2973471e-04
  2.2270240e-02   2.8985969e-03
 -1.9934244e-01   3.9716037e-03
  3.9526727e-02   1.5146334e-02
 -2.1223953e-02   5.9452956e-03
 -6.5324306e-03   1.1320678e-03
  7.1240971e-03   2.5738266e-03
 -3.5841595e-02   2.4751991e-03
 -8.1676513e-02   2.1835060e-03
  2.4408128e-02   2.2779580e-03
 -1.3732497e-02   4.1664117e-03
 -1.8326247e-02   7.6012174e-04
 -6.9056436e-02   2.5041776e-03
 -6.0232572e-04   1.8475032e-03
  2.1104444e-02   4.2229900e-04
  8.2269097e-03   2.9214809e-03
  3.6812681e-01   3.4586508e-05
  7.8238994e-01   4.1818258e-04
  1.0362090e-02   2.3536608e-05
 -5.6160122e-01   9.5370924e-04
  6.9779418e-02   3.4520187e-04
 -1.9039625e-02   2.0075704e-04
 -1.9695321e-01   1.6674583e-03
  8.7998226e-02   1.9222668e-03
 -3.4595928e-01   3.2336100e-03
 -4.7586805e-01   2.1769614e-04
 -5.7311766e-03   9.3294884e-04
 -9.3513548e-01   5.2756275e-04
  4.5311410e-02   1.0807834e-03
 -7.5987212e-02   6.5522245e-03
  8.6197751e-03   5.6938627e-03
  8.5812286e-02   1.0559825e-03
 -1.7651998e-01   2.8558467e-03
  2.0854857e-02   1.0594272e-02
 -3.5691284e-02   2.7614017e-03
 -4.4789348e-02   1.8410245e-03
  4.4805605e-02   3.2695271e-03
 -1.6341524e-02   4.3180105e-03
  4.8574109e-02   2.6326939e-03
 -6.4666159e-02   3.4029020e-03
  3.1321388e-02   2.4356979e-03
 -1.4053158e-03   6.9157155e-03
  3.8869746e-02   3.6687665e-03
  2.9758234e-03   3.2373043e-03
 -4.3855827e-02   1.6197670e-03
  2.0171449e-02   2.7537863e-03
 -8.0832858e-03   2.8072188e-03
 -6.3476562e-03   1.8604249e-03
 -3.1257126e-02   5.6484183e-03
 -3.7131112e-02   1.5873525e-03
 -3.2793138e-02   2.3227036e-03
 -1.2964240e-03   6.0760328e-03
 -2.6078892e-03   4.5484169e-03
 -1.8978097e-01   2.7576007e-03
 -2.6672645e-02   4.5146435e-03
 -6.9878370e-02   1.5596504e-03
 -4.7536418e-03   3.8966404e-03
  1.3706480e-01   6.7155735e-05
 -1.2771336e-02   2.2109023e-03
  2.7238569e-01   2.3143846e-04
  1.3607818e-03   6.2816800e-04
 -4.1131720e-02   9.8961371e-04
  1.0872005e-02   5.1101292e-03
 -3.9050020e-02   1.6915342e-03
  1.9894028e-03   1.1795446e-03
  5.4654948e-02   3.9990577e-03
 -6.3196351e-03   2.1040537e-03
 -6.0678728e-02   6.7858247e-04
 -3.8245757e-04   9.5082197e-04
 -1.1354445e-02   7.5438940e-03
 -7.8579508e-02   4.6934709e-03
  5.4485172e-02   3.4583622e-04
  9.4515306e-04   2.1046142e-03
  8.7624546e-03   4.3311887e-03
  1.4399235e-04   2.9746845e-04
  3.8802207e-02   1.1209827e-02
 -1.2623772e-02   1.0416583e-02
  2.2882398e-02   5.7669198e-03
  1.4857166e-02   8.1902882e-03
 -8.0770299e-02   6.6783247e-03
  6.1021265e-02   1.6984816e-03
  8.3380183e-03   1.5433159e-03
  1.5344214e-02   1.4023099e-02
  3.6489811e-02   7.6339892e-03
 -9.2410157e-03   3.5061592e-03
 -2.3617886e-02   1.0085269e-02
  4.6060607e-02   6.6611236e-03
 -2.1712087e-02   4.8848479e-03
 -1.9777969e-02   3.2505908e-04
 -2.9619467e-02   4.3436480e-04
  1.5413415e-02   8.4121060e-03
 -1.2279032e+00   1.4425949e-03