 -1.2498420e-02   2.3606405e-02
 -4.5889527e-02   6.2604815e-02
  9.6332081e-02   4.1849382e-02
  4.4844147e-02   3.4505352e-02
 -1.7949417e-01   4.5327112e-02
 -1.2409191e-01   5.0841928e-02
 -2.0414506e-01   5.0164845e-02
  9.5704287e-02   6.3211389e-02
 -2.0473054e-01   8.0065310e-02
 -7.5403438e-03   5.0777379e-02
  7.1961042e-03   7.2332636e-02
 -8.1317045e-02   5.5964246e-02
  4.9457077e-02   6.2218033e-02
  2.1480258e-01   6.5715238e-02
  4.2337351e-02   3.7774637e-02
 -2.4261577e-01   3.0770283e-02
  7.3169723e-02   9.0906724e-02
 -1.6459690e-01   3.6756624e-02
 -1.3295181e-01   3.7091080e-02
 -1.7188379e-01   3.0907014e-02
 -3.0549970e-01   7.6871939e-02
 -1.3476251e-01   1.8315235e-01
  1.1668493e-01   7.4370027e-02
 -2.5765240e-01   4.4559337e-02
  2.8970313e-01   7.4138068e-02
 -5.6307279e-02   5.0279085e-02
 -2.0419301e-01   7.2333947e-02
  3.9423606e-01   1.5155483e-02
  2.2970869e-01   4.4386782e-02
  1.2769799e-01   1.2686749e-01
  4.0811941e-02   4.6605103e-02
  2.1331890e-01   3.2425724e-02
 -2.8338251e-01   3.5757162e-02
 -1.9933660e-02   6.4813420e-02
 -6.6258527e-02   5.7520181e-02
 -2.9942963e-02   4.1472431e-02
 -1.1539730e-01   2.9621225e-02
  5.0027236e-02   1.2807114e-01
 -5.1877964e-03   4.6575721e-02
 -1.3702536e-02   1.1990198e-01
  1.8701063e-01   5.7783946e-02
  1.8200323e-02   4.7648709e-02
  4.2345449e-03   6.3801371e-02
 -4.2106339e-01   5.5758659e-02
  1.7381838e-01   9.0487257e-02
  2.4546289e-01   3.6849253e-02
  8.3385892e-03   3.4666035e-02
  1.1566338e-01   5.2826762e-02
  1.0206297e-02   6.8426095e-02
 -8.8111997e-02   4.3447211e-02
  1.4519414e-01   3.6090780e-02
 -4.9329281e-01   6.9133185e-02
 -8.4738798e-02   2.2519892e-02
  5.5672012e-02   6.9870427e-02
 -5.0316412e-02   6.0488828e-02
 -1.0832535e-01   8.0989495e-02
  5.1242415e-02   2.5393633e-02
 -8.4149353e-02   5.9756458e-02
 -3.1158626e-03   4.0073760e-02
  3.0775186e-01   6.7894720e-02
  1.7840619e-01   3.1756088e-02
  1.4979669e-02   7.0588306e-02
 -4.0347889e-01   3.6889125e-02
  2.6331931e-02   4.8135735e-02
 -1.9387183e-03   2.0722628e-02
 -1.2178509e-01   6.4219765e-02
  1.3807219e-01   9.6392423e-02
  2.0290588e-01   1.3739142e-02
  8.9865059e-02   6.0018677e-02
  7.4032642e-02   1.4108637e-02
 -1.6226895e-01   5.6167707e-02
  9.6905911e-01   1.0088474e-02
  1.3757475e-02   1.0537902e-01
  1.7072132e-01   5.5910543e-02
  1.8726206e-01   2.7658764e-02
  1.7395659e-01   3.9082635e-02
  4.3653625e-01   3.4053855e-02
  5.3047396e-02   3.9511312e-02
 -5.6214517e-01   3.7633199e-02
  6.8557650e-02   2.0876484e-02
  3.1218925e-01   5.5328656e-02
 -1.6492651e-01   7.3676616e-02
  3.6271937e-02   8.7092578e-02
 -5.8791827e-02   5.0612677e-02
  2.5008923e-01   2.4779510e-02
  5.4095179e-02   4.2283490e-02
 -1.2383787e-01   1.6092142e-02
 -2.4484952e-01   3.5560541e-02
  4.0909272e-02   2.3275224e-02
  3.5746556e-02   2.2858936e-02
 -4.6360467e-02   2.6142725e-03
 -4.9653932e-02   1.0741135e-02
  5.1515651e-01   4.6139085e-03
 -6.8535596e-01   1.1884741e-02
  7.7287881e-03   1.4812897e-02
  3.6455390e-01   6.4459853e-02
  1.0447125e+00   3.0585086e-02
  4.3867582e-01   4.8689712e-02
  1.6884811e-01   1.7041247e-02
  6.5242007e-02   2.9258091e-02
 -2.0344022e-01   2.7666586e-02
  2.9266736e-01   5.9817761e-02
 -2.1368669e-01   7.2332390e-02
  1.0734637e-02   2.5980603e-02
  4.2424709e-01   1.5507170e-02
  1.1692753e-01   5.5164222e-02
  2.1423770e-01   3.8142428e-02
  2.4050796e-01   5.7261482e-02
 -9.2698567e-02   5.2506227e-02
  5.9339304e-02   5.0790153e-02
 -4.1984975e-01   8.9737121e-03
  1.4158617e-01   9.6520618e-02
  6.8698190e-02   4.1979492e-02
 -1.5622202e-01   3.8563482e-02
 -8.1304148e-02   3.9056260e-02
  3.9504655e-02   6.9118887e-02
  5.9047118e-02   9.3386583e-02
 -3.3565325e-01   7.5699382e-02
  1.3785659e-01   3.5961106e-02
 -1.1316211e-01   8.3511278e-02
 -1.8671544e-02   6.8493310e-04
 -1.2020959e+00   3.2384833e-03
  3.2505906e-01   1.6888496e-03
  1.1644521e+00   9.0749580e-03
  1.8661008e+00   5.1587136e-03
  2.3078662e-01   5.3995147e-02
 -1.5955557e-01   1.0587374e-02
  1.7151901e-01   3.2402232e-02
 -1.3295767e-01   3.5241999e-02
 -2.7971480e-02   2.5000779e-02
 -1.2581114e-01   3.6708917e-02
  1.8906461e-02   4.7485359e-02
 -1.0038952e-01   1.1498814e-02
  9.0897055e-03   1.8166592e-02
 -7.7850334e-02   3.2476138e-02
 -1.3551019e-01   3.3701368e-02
  3.5945142e-03   3.0968245e-02
 -6.2645964e-02   2.0259351e-02
 -6.5944701e-01   1.8148407e-02
  6.3954785e-02   2.9001204e-02
  2.8982213e-01   1.5366272e-02
  3.8350439e-01   2.9063223e-02
 -5.1901048e-01   2.3348348e-02
 -4.4463420e-01   4.3134302e-02
 -1.3318223e-01   5.5201299e-02
 -1.4853603e-01   6.6530116e-02
  1.2504315e-01   1.2729244e-01
 -8.3649345e-03   5.9696611e-02
  3.8198486e-01   3.0892789e-02
 -2.2124244e-01   1.1814667e-01
 -3.3594108e-01   3.3665214e-02
  1.4511179e-03   6.6919409e-02
  2.3758131e-01   1.4913444e-02
 -4.0152945e-02   5.1626232e-02
 -1.0861129e-02   7.0879109e-02
  5.1869977e-01   4.5175139e-02
  1.1102197e+00   1.4651341e-02
 -7.8239515e-03   9.1254838e-02
  2.8583232e-01   1.0175812e-01
  2.5771943e-01   6.8638422e-02
 -1.7053506e-01   6.2023479e-02
 -3.4589055e-01   1.8543681e-02
  2.5553179e-01   5.3539421e-02
 -1.6095154e-01   1.0065437e-01
  4.5893678e-01   8.5926816e-02
 -3.0068418e-02   6.3366070e-02
 -8.4527396e-02   5.2753486e-02
  3.2661209e-01   4.5107603e-02
  2.6638553e-01   2.9235462e-02
  1.4224870e-02   2.7212942e-02
  1.2151835e-02   3.7902258e-02
 -9.0848714e-02   4.0127680e-02
  2.2022112e-01   5.9107434e-02
 -5.1277965e-02   5.3798612e-02
  1.4523640e-01   7.1816340e-02
  1.9731209e-01   3.7197344e-02
  2.2332713e-01   7.5855605e-02
  4.5282803e-03   4.6340443e-02
  7.6442577e-02   6.1421160e-02
 -4.6146151e-01   2.8501717e-02
  5.3206670e-01   3.1501684e-02
  3.3846729e-02   8.3468802e-02
 -1.6894024e-02   2.9374115e-02
 -1.8059981e-01   7.9986252e-02
  1.8297139e-01   7.9564862e-02
 -4.0429205e-02   6.0747258e-02
  7.2525933e-02   4.1057207e-02
 -2.0688701e-01   1.9043254e-02
  2.3536133e-02   4.2815384e-02
  4.8845559e-02   4.7345631e-02
  1.8956719e-01   5.0529074e-02
  4.9948011e-02   4.7288753e-02
  1.5779386e-01   2.0451602e-02
 -1.0357869e-01   7.1482889e-02
 -1.8643937e-01   1.6812335e-01
 -3.9513311e-01   2.9716954e-02
 -2.9595399e-02   8.7191366e-02
  2.4695174e-01   7.8865103e-02
 -4.5974821e-02   4.9579095e-02
  2.8298495e-02   7.9614066e-02
  4.1488597e-01   2.9684057e-02
  2.2114758e-01   2.5684431e-02
  6.1172448e-02   2.5489589e-02
  1.3023077e-01   1.2219158e-01
  1.8895543e-01   6.1646655e-02
  3.4622464e-01   6.6852041e-02
 -5.5662677e-02   4.0864363e-02
 -1.3228260e-01   7.4611776e-02
 -2.4585417e-03   4.5708220e-02
  5.6974247e-02   6.4873457e-02
  6.5269805e-02   1.8798685e-02
 -1.6709700e-01   3.5520852e-02
  3.4410778e-01   3.4277301e-02
  1.9387816e-01   5.9524413e-02
  2.1782702e-01   4.3175090e-02
  1.4947864e-01   4.0796615e-02
  1.0237622e-01   2.3415660e-02
  5.7729394e-03   5.0175611e-02
 -1.8953262e-03   4.9888555e-02
 -4.3457206e-02   1.8065764e-02
  1.2126716e-03   2.5821894e-02
 -2.5106471e-02   5.5272836e-02
 -1.2218944e-01   4.9244948e-02
  6.2067866e-01   5.5787764e-02
  7.6189697e-02   5.4690499e-02
  6.9056697e-02   6.9604345e-02
 -1.4263844e-01   3.4870438e-02
 -1.4437395e-01   3.4204148e-02
  3.3231996e-02   5.4692909e-02
  2.1076083e-02   5.9491597e-02
  6.6873156e-02   2.9096238e-02
  3.5156897e-01   1.1014355e-02
  1.4039835e-01   7.2533265e-02
  9.7489104e-02   4.1642774e-02
 -3.4990452e-02   6.9044881e-02
 -3.0358019e-01   1.0055131e-02
  2.5801334e-01   8.8850655e-02
 -1.3685244e-01   1.4412431e-01
  1.9010307e-01   9.0705277e-03
  5.4689869e-03   1.0138007e-01
 -1.3546120e-01   1.6284762e-02
  4.1622066e-01   5.9799355e-02
  4.4583762e-01   1.2843997e-02
  1.6082722e-01   1.2159312e-01
  6.8596795e-02   1.1543407e-01
  2.2513497e-01   9.9548273e-02
  1.3273497e-01   4.5715358e-02
  4.4876775e-01   9.3050882e-02
  2.0723791e-01   9.1477118e-02
  1.0452654e-01   1.1505061e-01
 -1.3020478e-01   6.6252209e-02
 -1.2807313e-01   4.6462603e-02
 -7.9576358e-02   1.9062424e-02
 -2.7964926e-01   2.9032232e-02
  1.7566161e-01   4.2716548e-02
  9.1992967e-02   6.6612989e-02
 -1.4234962e-01   1.0763291e-01
 -3.4818467e-02   9.4799630e-02
  4.3677606e-02   1.2806491e-02
  7.6085873e-02   9.5943265e-02
  1.2924275e-01   2.7951552e-02
 -6.6847719e-02   4.3868672e-02
  9.2502505e-02   9.1297731e-02
 -1.2191589e-01   4.7454908e-02
 -2.6851338e-01   6.3191779e-02
  1.6009320e-02   1.0293105e-01
 -3.7223405e-01   1.1705888e-02
 -3.4391731e-02   7.5163171e-02
 -1.7048483e-01   6.9693521e-02
  1.0855894e-01   2.2543514e-02
  2.3068039e-02   7.9220302e-02
  8.2590334e-02   2.6475364e-02
 -4.6630438e-02   2.5794104e-02
 -4.1025743e-02   9.0929911e-02
 -1.8918533e-02   3.7901662e-02
  1.9317736e-01   4.2800967e-02
  1.9850507e-01   9.0431094e-02
  1.0826229e-01   3.7446469e-02
 -2.8974205e-02   2.0385662e-02
  1.6537680e-01   6.6814169e-02
  1.4054111e-01   6.3032545e-02
  5.8897585e-02   4.3731637e-02
 -9.4134301e-02   4.7512364e-02
  1.0872734e-01   1.9749714e-02
  1.3948143e-01   2.2365352e-02
  1.8036510e-01   3.9164394e-02
 -2.9697067e-01   9.1215141e-02
 -1.1039740e-01   5.9357960e-02
 -5.9524413e-02   4.7674544e-02
 -2.8303938e-02   7.7389009e-02
  6.1019593e-01   1.6015831e-02
  6.1834548e-02   3.5798240e-02
 -2.7378011e-01   5.8788680e-02
  3.1878078e-01   2.6735529e-02
  5.8542043e-02   3.8322788e-02
  9.4392613e-02   5.0327796e-02
  1.1561125e-01   8.4054194e-02
  1.2961983e-02   3.8798880e-02
  2.5663999e-01   2.4543429e-02
 -3.0831000e-01   5.4341428e-02
 -2.2610450e-01   7.6529180e-04
 -1.8993680e-01   3.8103282e-03
 -1.6502007e-03   1.4553427e-03
 -1.9083837e+00   4.6224627e-03
 -6.6611671e-01   1.5052490e-02
  2.3106722e-02   1.2909059e-02
 -4.3194723e-01   3.4590829e-02
  3.5751197e-01   2.3864310e-02
  2.4455433e-01   2.4016015e-02
 -1.7722270e-01   6.3194036e-02
  6.1479461e-01   5.0581735e-02
 -1.7884135e-01   4.4538580e-02
  1.9186570e-01   4.2075828e-02
  7.3061019e-02   6.1338525e-02
  1.5930228e-02   5.6624796e-02
 -6.7161685e-01   1.3411813e-02
 -2.9029915e-01   3.8183816e-02
 -6.1367607e-01   1.0786943e-02
  7.3040556e-04   4.6916641e-02
  7.7764027e-02   6.4592972e-02
 -5.2547995e-03   6.5042421e-02
  3.9532578e-01   1.8201906e-02
  7.5790338e-02   2.1486850e-02
 -3.9915025e-01   3.0889714e-02
  2.4692930e-01   5.6932643e-02
 -2.7809235e-01   1.1684480e-01
 -2.7604920e-01   7.2123230e-02
 -8.1142783e-02   8.4555410e-02
 -1.8540074e-01   1.9401072e-02
 -1.5078180e+00   1.2759244e-02
 -5.3864950e-01   2.1431247e-02
  7.9175133e-01   1.1606298e-02
 -4.0884815e-02   3.4105644e-02
 -2.3805881e-01   2.2524964e-02
  2.5059953e-01   5.0318766e-02
  2.0862645e-02   5.1595744e-02
 -2.3013847e-01   1.6789610e-02
 -1.1338311e-01   7.4405409e-02
 -5.9866881e-01   1.1786231e-01
  2.3585407e-01   8.1948519e-02
 -8.7047238e-03   6.9197059e-02
  2.5554952e-01   4.0447395e-02
 -1.1433576e-02   1.2234204e-01
  1.5324483e-02   6.6325046e-02
 -6.1918944e-02   5.3509805e-02
  1.2192686e-02   7.5064853e-02
  3.5666102e-01   5.5864561e-02
  5.7038246e-04   6.0218297e-02
 -1.3978626e-01   9.4438396e-02
  9.0908028e-02   6.5116413e-02
  2.5157969e-02   4.2290565e-02
 -2.8913792e-02   7.1654372e-02
 -1.4702190e-01   6.7709513e-02
 -2.9941595e-01   6.4990737e-02
  9.7157940e-02   3.1118749e-02
 -3.3405027e-01   4.8902202e-02
  3.2422096e-02   3.2019351e-02
 -2.4441534e-01   6.6578612e-02
  5.5569101e-02   6.6717498e-02
  2.5289994e-01   1.0535105e-01
  3.3947387e-01   1.2501675e-02
 -4.8154663e-02   1.4485997e-02
 -3.7035641e-01   7.9384940e-03
 -4.2312495e-02   2.0034265e-02
 -4.9900916e-01   1.4256062e-02
  1.0497024e-01   5.6900162e-02
  2.6247233e-02   5.9982270e-02
  2.4753196e-02   3.5810590e-02
  3.2627723e-01   3.2244939e-02
  3.7429413e-01   6.0986329e-02
  1.3165992e-02   3.5080712e-02
 -6.6269554e-02   9.1464430e-02
  2.1747705e-01   7.4857280e-02
  3.7483892e-01   4.9117813e-03
 -2.0511393e-01   3.7820250e-02
 -3.5392398e-01   2.9325433e-02
  7.0157802e-01   2.0709429e-02
  1.0413762e-01   3.7428081e-02
 -1.9361578e-01   4.9348637e-02
 -1.2565202e-01   8.6200580e-02
  4.5088693e-01   3.4768451e-02
  1.8792260e-02   7.0113763e-02
 -2.2748151e-01   4.7419377e-02
  1.9915801e-01   2.1921635e-02
  2.7257875e-01   3.0343309e-02
  6.0470156e-02   8.2104497e-02
  3.1541310e-02   2.7152844e-02
  9.8930094e-03   4.0141962e-02
  5.2200234e-01   3.9112594e-02
 -4.6282811e-03   3.1325202e-02
  6.4384657e-01   1.5241960e-02
  3.7648907e-01   1.3741710e-02
 -4.1441541e-02   2.3011824e-02
  1.8315510e-01   4.8843857e-02
 -2.6765374e-02   6.2842935e-02
  2.4673453e-01   7.2963715e-02
 -6.7763008e-02   3.7416451e-02
  1.5730962e-02   3.7121266e-02
 -5.1774349e-02   1.3153304e-02
  4.3185335e-04   5.4268159e-02
 -3.3259507e-02   1.7393945e-02
  1.9499005e-01   7.7941582e-02
  1.9377378e-01   2.4500778e-02
  2.7189735e-02   3.3179414e-02
 -1.7459521e-01   8.1577078e-02
 -1.1960237e-01   1.5093886e-02
  4.4581267e-01   3.3096440e-02
  6.8767890e-02   6.1564427e-02
 -1.2648605e-01   1.7796934e-02
 -3.6572418e-01   4.6774816e-02
 -1.8219596e-01   1.0615285e-01
 -4.3868372e-01   6.8708733e-02
 -1.5674332e-01   3.9428100e-02
  9.7454228e-02   5.5770744e-02
 -2.9344016e-01   6.4893164e-02
  4.0848874e-03   4.3665767e-02
  1.3594460e-01   3.9840300e-02
  3.8132511e-02   5.9173331e-02
  1.0122690e-01   8.1550717e-02
 -1.8360574e-02   3.7292685e-02
  1.0057816e-01   2.6835652e-02
  2.2981529e-01   2.6872238e-02
  9.2133582e-01   2.0990912e-02
 -1.2991980e+00   1.7864911e-02
 -4.7004622e-01   6.0024492e-02
  4.1060382e-01   2.8411845e-02
 -1.0866810e-01   8.1286371e-02
  1.3849711e-01   3.7078310e-02
  3.4025264e-01   1.0826784e-01
 -3.6286065e-01   6.1963357e-02
  2.8440288e-01   7.3801301e-02
  2.5840294e-01   9.2543267e-02
 -6.1371811e-02   9.4998337e-02
  1.2306114e-01   6.9586113e-02
 -9.7931556e-02   5.0584756e-02
  2.8401661e-01   2.0573355e-02
  8.8595092e-02   5.1153418e-02
 -5.0499562e-02   6.5149866e-02
  7.8548953e-02   3.2583266e-02
  2.3443381e-01   7.0331395e-02
 -5.5237496e-01   1.2514478e-02
  7.5621478e-02   2.9414488e-02
 -2.8443870e-01   7.3214903e-02
 -4.4806343e-02   3.4440957e-02
 -5.2560729e-01   2.2480786e-02
  1.8629992e-01   4.3368466e-02
  5.6697026e-02   9.4448380e-02
 -3.7577536e-02   1.1637969e-01
  2.2250363e-01   2.4347702e-02
 -3.3368954e-01   3.2995630e-02
 -1.6191265e-01   3.9413188e-02
  2.5469252e-01   5.1459506e-02
  1.3062552e-01   2.2803305e-02
 -2.6121980e-01   4.0059052e-02
  3.1608477e-01   3.1726014e-02
 -2.4215239e-01   8.5736662e-02
 -5.7797506e-03   9.2829339e-02
 -2.2306308e-01   2.4092169e-02
  2.9259372e-01   1.0990087e-01
  1.5121289e-01   6.8251111e-02
 -2.9514131e-01   1.4447159e-01
 -2.3180222e-02   5.4804996e-02
  1.1885194e-02   9.3111962e-02
  1.8425472e-01   1.0092361e-01
 -1.6022675e-01   1.8071420e-02
 -1.2282332e-01   6.5090463e-02
 -7.6985970e-02   8.7718211e-02
  3.0166518e-02   1.2735505e-02
  8.7141611e-02   7.1273632e-02
 -3.7852749e-03   5.8801305e-02
  1.0265794e-01   4.5323454e-02
 -3.8857266e-02   5.9814144e-02
  8.2369097e-02   4.0390283e-02
 -1.1182970e+00   1.6035322e-02
 -3.2579463e-02   4.4018310e-02
  7.7070221e-03   1.3650112e-01
 -2.8562215e-01   9.6441366e-02
 -1.2172478e-01   8.7891534e-02
 -1.0006316e-01   4.1119229e-02
  4.4399392e-02   3.0970566e-02
  4.5134395e-01   1.2579686e-02
  5.2879149e-01   5.3346019e-02
 -7.4379988e-02   4.6517555e-02
 -1.7760885e-01   5.2527912e-02
  8.9560136e-02   4.8119999e-02
  5.8536881e-01   8.0300625e-03
 -1.7924745e-01   8.2251444e-02
  4.4916853e-02   3.7427433e-02
  6.1293680e-02   5.3183679e-02
  5.3794956e-01   2.6336851e-02
 -3.4648788e-01   8.7745421e-02
  6.8646960e-02   4.5194317e-02
  5.0263107e-02   1.4386274e-02
 -2.1784920e-01   7.6639235e-02
 -1.6266607e-01   5.9710942e-02
  1.2087132e-01   5.9124090e-02
 -4.4638357e-01   6.9074139e-02
  1.4128616e-01   5.9640590e-02
 -1.2242764e-01   4.7233276e-02
 -2.6631612e-01   1.1908619e-01
  3.2874674e-02   6.4180844e-02
 -4.9620196e-01   5.1551159e-02
 -2.6331810e-02   2.2892576e-02
  2.2904894e-01   8.2137577e-02
 -5.7304281e-01   3.3492696e-02
  1.2698121e-01   5.3186733e-02
 -1.2337590e-01   3.4708831e-02
  1.3795289e-01   7.3564902e-02
  1.1138905e-02   5.0161306e-02
  2.6092097e-01   6.3662618e-02
 -6.5951657e-01   1.9863408e-02
  1.5291847e-01   3.0534284e-02
 -1.1105688e-01   1.4931860e-02
  1.8513972e-01   2.5794050e-02
  9.9341087e-02   4.1769389e-02
  1.0079705e-01   5.5279456e-02
  9.2595220e-02   7.9098769e-02
 -1.9201855e-01   2.0351874e-02
  3.6980500e-03   6.4702414e-02
 -4.1757099e-02   4.6062127e-02
 -3.5117522e-02   6.1321612e-02
  5.3045478e-02   6.9208451e-02
  2.8705850e-01   1.2863135e-01
 -3.9389500e-01   4.3991487e-02
 -2.7846363e-01   3.6596693e-02
 -2.4473082e-01   5.6984395e-02
 -2.9927537e-01   5.8272850e-02
  2.3900573e-01   6.1705627e-02
 -1.4786129e-01   4.3499120e-02
  3.7000947e-02   8.5236467e-02
  2.7710205e-01   1.5988572e-02
  1.8576844e-01   4.3089811e-02
  2.1293730e-01   4.5817073e-02
 -1.2430477e-01   4.1873347e-02
 -8.7787591e-02   5.6615431e-02
  8.5534431e-02   6.7982465e-02
 -1.7996228e-01   1.7902341e-02
 -4.0019336e-01   1.2938799e-02
  3.8700562e-03   8.1823654e-02
 -2.8116113e-01   1.9855013e-02
  4.0881366e-01   1.4023326e-02
 -1.5133505e-01   4.1390073e-02
 -1.1182554e-01   1.7178664e-02
  3.0255973e-01   9.0920717e-02
  6.5954626e-02   1.0524821e-01
  2.4806444e-01   5.3878516e-02
  6.3674420e-02   8.7432310e-02
  1.5204532e-01   6.4944498e-02
  1.3856518e-01   3.6787439e-02
  1.5509292e-01   3.7577081e-02
  2.3171081e-01   1.6373839e-02
  4.5994233e-02   8.8198282e-02
 -2.3986129e-02   7.3094793e-02
 -7.6876152e-03   7.2966732e-02
  2.9459038e-01   2.6155675e-02
  8.6605571e-02   7.2544053e-02
 -4.9222253e-02   4.6206687e-02
 -6.8353899e-02   6.8682194e-02
  7.9076864e-02   1.1499628e-01
  5.2209586e-02   7.3411398e-02
 -2.3502651e-01   4.8851401e-02
  2.0914568e-01   7.6151490e-02
  1.7839184e-01   4.1791700e-02
  4.1987392e-01   3.9209437e-02
 -1.1096153e-01   7.5762928e-02
 -6.2893316e-02   6.7974418e-02
  1.9566706e-01   1.0528453e-01
  4.4113657e-01   5.9449881e-02
  1.6469669e-02   6.9390178e-02
  2.5371157e-02   5.4499518e-02
 -6.5301293e-01   2.1207716e-02
 -6.2882394e-02   2.0988761e-02
  6.7284578e-01   1.9436937e-02
  1.7613584e-01   2.8812813e-02
 -4.4042322e-01   3.6132209e-02
 -2.1637417e-03   8.1878424e-02
 -3.0260092e-01   1.5826119e-02
  1.3491984e-01   1.1545812e-01
 -2.3725405e-02   4.5323480e-02
 -4.5062745e-01   6.5504849e-02
  2.0130643e-01   6.2957212e-02
 -4.9749475e-02   3.0393818e-02
  1.9456130e-01   3.9252613e-02
  2.4766159e-01   4.4388257e-02
 -2.6302004e-01   5.1544689e-02
  1.1668629e-01   5.3680092e-02
  7.6079711e-02   4.3436352e-02
 -6.1041832e-02   6.9464155e-02
 -1.8194868e-01   3.2585900e-02
  1.2344495e-01   6.0047101e-02
 -2.2774304e-01   1.0371550e-01
 -6.0833056e-02   9.0996623e-02
 -9.9824592e-02   9.4322406e-02
  5.1597375e-01   4.2796060e-02
 -1.2529232e-01   6.0691372e-02
 -8.4987924e-02   1.3549008e-02
 -1.6884096e-01   4.7249131e-02
 -3.9643932e-02   7.2119385e-02
  2.9110348e-01   5.3988185e-02
  5.5470347e-01   2.6534552e-02
  1.6393428e-01   8.4095420e-03
 -1.0886885e-01   1.9696057e-02
 -3.8211191e-01   9.7206384e-03
  2.7967304e-01   2.5450744e-02
  2.2871314e-01   2.1309583e-02
  1.7543539e-01   5.0635800e-02
 -5.4763313e-02   8.0269754e-02
 -7.8717929e-01   9.1602737e-03
  3.0731970e-01   4.9362451e-02
  4.1145781e-01   8.0031820e-02
  1.3055824e-02   2.1814790e-02
 -1.4758781e-02   3.0417185e-02
  7.3737249e-02   4.9398802e-02
 -1.8161773e-03   3.6462776e-02
  7.6828383e-02   9.2787258e-02
 -7.4320897e-02   3.3101808e-02
  3.0961120e-01   6.0064219e-02
  7.6813087e-02   4.1874159e-02
 -7.9118073e-02   9.1407716e-02
 -6.9383547e-02   7.8013986e-02
 -1.2268718e-01   8.2887597e-02
  6.0987622e-02   3.5050921e-02
  1.2911674e-02   6.1515834e-02
 -5.8866394e-01   2.1120001e-02
 -5.6124598e-01   4.6104498e-02
  8.5265681e-02   8.6726785e-02
  1.0203702e-01   5.8507774e-02
  9.4645098e-02   4.5394283e-02
  7.5136989e-02   1.0175692e-01
  4.3457502e-01   3.4338988e-02
  2.0938478e-01   2.5388425e-02
  1.3465412e+00   1.8833205e-02
  2.0167409e-01   3.2852687e-02
  2.1285555e-01   6.5037228e-02
 -1.4647193e-02   2.7913194e-02
 -4.5830715e-01   8.2850382e-02
  3.7498134e-01   5.3481523e-02
 -5.8537934e-02   5.9675757e-02
  2.4464649e-01   6.0354520e-02
 -1.6609982e-01   2.5815787e-02
  4.5989856e-02   1.1728007e-01
  2.2490485e-01   4.3449257e-02
 -6.4954437e-02   4.0192213e-02
  1.2045198e-03   1.6912008e-02
 -5.3988159e-02   2.0203223e-02
 -2.5124380e-01   9.4267420e-02
  1.5010478e-01   5.1897120e-02
 -1.7399587e-01   1.1596777e-01
 -3.6464732e-02   2.9227804e-02
  2.5232494e-02   7.8977771e-02
  1.8197285e-01   3.3140611e-02
  8.7715033e-03   4.1647863e-02
 -2.4688420e-01   6.1262559e-02
 -1.3107155e-01   5.5928342e-02
 -1.1468921e-01   5.2927107e-02
  2.6595637e-01   4.8279833e-02
  2.5094086e-01   6.6200197e-02
  1.7895012e-01   8.6598821e-02
  3.7987366e-01   9.2257209e-02
  5.1964551e-02   1.0910554e-01
 -1.0621759e-01   1.9044755e-02
 -9.8211601e-02   4.9082413e-02
 -5.2999139e-02   4.1882094e-02
  1.5940432e-01   4.9421113e-02
  1.7915991e-01   3.2712311e-02
 -1.7755026e-01   3.3400390e-02
 -2.8737713e-02   4.6946779e-02
 -1.2963182e-01   4.8704572e-02
 -8.4334351e-02   6.7034796e-02
  5.6079797e-02   4.2790595e-02
  1.1611000e-01   5.0792646e-02
  2.3432302e-01   6.4471379e-02
 -8.6718529e-02   4.4833772e-02
  4.4659862e-01   5.4154012e-02
  9.3953416e-02   1.2955983e-01
 -7.0034713e-02   5.6647375e-02
  3.2947108e-01   4.8715569e-02
 -3.3310026e-01   2.6966318e-02
  2.8235114e-01   6.6136129e-02
  7.4601509e-02   4.1316479e-02
 -1.8120663e-01   4.0063839e-02
 -9.8749138e-02   5.1717009e-02
  3.0412879e-02   5.3264502e-02
  8.2483150e-02   1.4472309e-01
 -1.6271229e-01   5.5567659e-02
  2.5100681e-01   3.7091013e-02
 -4.6137147e-02   8.8985719e-02
  3.0995764e-02   9.7562574e-02
  1.3965163e-03   9.1556504e-02
  4.1719052e-01   4.9337581e-02
 -5.8645740e-02   2.3725890e-02
  2.5782531e-01   3.6940563e-02
  7.7776037e-02   3.2701701e-02
  1.2961137e-01   4.4992168e-02
  1.0601442e-01   3.6455981e-02
  1.2793708e-01   1.0057403e-01
  8.7453485e-02   6.6955961e-02
 -5.8260426e-05   1.9041056e-02
  2.0499849e-01   3.0219622e-02
  2.2271723e-01   6.4909033e-02
 -8.2391411e-02   3.1832743e-02
 -2.9748926e-02   1.1279841e-01
  1.6287526e-02   4.2691026e-02
 -3.9440030e-01   9.0629101e-02
  2.0664135e-01   6.4082362e-02
 -3.2398883e-01   7.7123709e-02
  1.0658956e-01   3.3389639e-02
 -1.2902970e-02   1.0242257e-01
 -1.6508271e-01   9.0808474e-02
 -9.8991051e-02   5.8202337e-02
 -4.2228991e-01   7.2429061e-02
  9.1424230e-03   5.5951059e-02
  6.7810202e-01   7.6337427e-02
  5.5617403e-02   4.4277731e-02
  8.3634993e-03   3.8912956e-02
 -7.3541105e-02   1.0323501e-01
  5.1034892e-01   5.6905225e-02
 -2.2392474e-01   8.4201410e-02
  3.3154535e-01   9.1233000e-02
  6.6880167e-02   1.1080573e-01
  3.5705328e-01   2.9121201e-02
  2.3308486e-01   4.6416957e-02
 -5.8460116e-02   3.6107399e-02
  1.8578801e-01   1.7234467e-02
 -2.4035355e-01   7.1170643e-02
 -1.8060805e-01   1.3476081e-02
  2.6666301e-01   1.6640846e-02
 -2.8808177e-01   1.0898532e-01
  9.6454918e-02   6.2989704e-02
  1.7473917e-02   9.9381685e-02
 -5.2616495e-01   9.9401474e-02
 -6.2193513e-02   5.0580572e-02
 -1.1253031e-01   9.8162286e-02
 -2.3297088e-01   4.3982502e-02
 -1.0323989e-01   5.8269110e-02
 -3.9464644e-01   5.1241118e-02
 -3.4004933e-01   1.0219552e-02
 -1.6217063e-01   6.0137402e-02
  1.1332970e-01   2.3156995e-02
  5.1201258e-02   2.2028936e-02
 -1.3534674e-01   1.0567803e-01
  5.5742466e-01   4.8403192e-02
  6.2619545e-02   5.6830157e-02
 -3.8625675e-01   9.3992576e-02
  1.8926656e-01   4.2092189e-02
 -6.3698716e-02   6.1717119e-02
 -1.3427879e-01   6.1170604e-02
 -5.7078969e-01   8.6445495e-02
 -9.4989888e-02   6.2432867e-02
 -2.2275309e-01   6.4292863e-02
  4.6307325e-01   5.9324683e-04
  8.6633855e-01   2.1869312e-03
  7.3683761e-02   6.0627953e-04
  2.1555538e+00   2.2871303e-03
 -5.3090900e-01   3.9048577e-03
 -2.4227864e-01   7.4036741e-03
 -1.2359627e+00   1.3369474e-02
 -2.5642565e-01   4.3798080e-03
 -4.4332713e-01   4.1781284e-02
 -3.4499669e-01   1.2088290e-02
 -1.7381831e-01   7.0359563e-03
 -5.9864223e-02   1.7005268e-02
 -2.0858109e-01   9.4715133e-03
 -4.9531835e-01   3.0404927e-02
 -3.2276538e-01   1.9291895e-02
 -3.2133911e-02   1.0777509e-02
 -8.7932259e-01   1.0652292e-02
 -1.1162293e+00   4.4193524e-03
  5.7556170e-01   2.6702652e-02
  8.3823937e-01   3.3070222e-02
  7.9810226e-01   9.2036603e-03
 -3.3344030e-01   2.1986522e-02
 -1.1341261e+00   1.2124849e-02
  6.8803644e-01   1.7989893e-02
  2.7458262e-01   3.1792805e-02
  2.1983540e-01   5.8031928e-02
 -1.2843593e-02   3.5985827e-02
  1.1488747e-01   3.8002808e-02
  5.9052326e-02   8.9848183e-02
  3.7993092e-02   6.5587305e-02
 -8.7373801e-02   2.1499109e-02
 -1.8187931e-01   6.5061405e-02
 -8.7274384e-01   1.2863304e-02
  2.1548234e-01   3.9349418e-02
 -1.4877182e-01   1.5897052e-02
 -5.0028253e-01   2.6932379e-02
  2.8589278e-01   9.3369439e-02
 -1.6155116e-02   3.2086905e-02
 -4.2751253e-02   5.7558656e-02
 -1.8395962e-01   5.1200006e-02
  1.9882862e-01   5.9532676e-02
  9.2350699e-02   1.8962380e-02
 -5.7059312e-03   1.0653835e-02
 -1.6995095e-01   5.8255397e-02
 -2.5466731e-02   5.2039195e-02
 -1.0112599e-01   9.1080338e-02
 -3.7265375e-02   3.0342711e-02
 -5.2879799e-02   5.6416754e-02
  1.2946710e-02   6.6779397e-02
  1.2818821e-02   4.3368805e-02
 -1.0785311e-01   5.6954831e-02
 -4.0820876e-01   1.0109922e-01
 -8.9243641e-03   1.2484715e-02
  1.2426966e-01   5.4934613e-02
  2.2257837e-03   7.1435593e-02
  4.3310970e-02   1.1405537e-02
  1.4178729e-01   7.2208852e-02
 -2.3654148e-01   7.4001066e-02
  3.3914138e-02   2.6653284e-02
 -1.8480787e-01   4.8815452e-02
  1.3628978e-01   2.2134963e-02
 -3.6416402e-01   2.7854770e-02
 -2.4463324e-01   3.6598463e-02
 -1.6368197e-01   7.1645096e-02
  3.7615246e-01   6.3628249e-02
  6.3304612e-03   5.6313258e-02
  6.0708129e-01   3.5456989e-02
 -5.7266559e-04   6.7491516e-02
  1.7225374e-02   3.3907190e-02
  1.2378514e-01   4.2106520e-02
  1.1218738e-01   5.8083043e-02
  1.8368220e-01   3.6018036e-02
  1.1156330e-01   8.3669491e-02
 -6.3035063e-02   2.2833774e-02
  2.6184502e-01   8.0933183e-02
  2.2050038e-01   6.0966864e-02
 -1.9188888e-02   5.1544517e-02
 -1.4251293e-01   5.2324258e-02
  1.6124552e-01   5.3261612e-02
  8.7779813e-02   2.2820471e-02
  1.5659671e-02   8.9731842e-02
 -2.6071185e-01   2.5465025e-02
  1.5610901e-01   8.0520235e-02
  3.9605582e-01   7.7643506e-02
 -1.4077690e-01   3.5808567e-02
 -2.9723808e-01   9.3728855e-02
  1.6298324e-01   5.6495149e-02
 -2.9604837e-01   4.4287443e-02
 -3.0627966e-02   6.1918128e-02
  7.6438738e-03   6.0563143e-02
  3.0302608e-01   3.3971895e-02
 -8.6886950e-02   8.0048099e-02
 -2.4549282e-01   2.6558863e-02
 -1.9059037e-01   5.6257132e-02
 -3.3532450e-01   5.6391411e-02
  9.0784840e-02   3.6638513e-02
  4.2020056e-01   1.0054130e-01
 -2.1770574e-01   4.1730952e-02
  1.8495111e-01   7.3907338e-02
 -6.4696223e-02   4.6900261e-02
  1.9570667e-01   4.7039319e-02
 -1.0629700e-01   3.3566054e-02
 -6.6207387e-02   2.4367142e-02
 -3.4007594e-01   2.5044922e-02
 -7.6268323e-02   7.3381402e-02
 -4.0564541e-02   8.2783937e-02
 -1.5339491e-01   3.6114641e-02
  3.1069168e-01   6.3788459e-02
  9.0389229e-02   7.1512684e-02
 -9.8381832e-02   4.1970573e-02
  2.6965910e-01   2.1364141e-02
 -2.0813767e-02   2.4700813e-02
  6.5607399e-02   4.5036878e-02
 -2.5089902e-01   9.3374945e-02
 -3.4846002e-01   2.4606934e-02
 -1.0726544e-01   5.4628216e-02
 -4.1341874e-01   8.5879155e-02
  3.6671318e-02   6.9732070e-02
 -3.8969579e-01   4.3176223e-02
  4.1900873e-02   1.1330149e-01
 -5.9017265e-01   1.1770708e-03
 -4.7741941e-01   5.2241324e-03
 -5.4958344e-01   1.8173072e-03
 -8.1061238e-01   4.1652541e-03
  4.9212139e-02   2.3350120e-03
  7.8235829e-01   7.7546244e-03
  3.9572230e-01   1.4673518e-02
 -1.3465685e-01   3.0214977e-03
  7.7135526e-02   2.8237043e-02
 -1.2951442e+00   1.1657457e-02
 -7.7396232e-01   9.1310330e-03
 -1.0780718e+00   1.1390586e-02
 -1.3798267e+00   7.8693209e-03
 -1.1439003e+00   2.3946729e-02
  2.3122425e-01   2.3451444e-02
 -4.9934670e-02   6.3987141e-03
 -3.8248590e-01   1.2880747e-02
 -3.1189060e-01   6.4328108e-03
  4.5447666e-02   1.7464384e-02
  1.1758263e-01   2.2830639e-02
 -3.8773146e-01   1.0398974e-02
 -6.6967434e-01   2.3929643e-02
 -6.3410968e-01   1.0078708e-02
 -5.2896959e-01   9.7998222e-03
 -4.1687208e-01   6.6185896e-03
 -4.3192574e-01   1.7671095e-02
 -2.3681185e-01   6.1358899e-02
 -6.9817990e-02   4.9556579e-02
 -1.1453150e-01   6.5651402e-02
 -2.0174317e-02   3.3178095e-02
 -1.0650513e-01   5.5752490e-02
 -2.1720500e-01   4.1003264e-02
  8.4476702e-02   4.5626868e-02
 -3.1464165e-01   1.1208031e-02
 -1.5484760e+00   3.5700928e-03
 -2.9879479e-02   4.2056881e-02
  2.0597705e-01   2.9687472e-02
 -9.8873310e-02   6.0073745e-02
 -9.2522420e-02   4.2143460e-02
  3.8817491e-02   6.0406212e-02
 -1.3428557e+00   5.6118919e-03
  2.2393119e-01   1.1156052e-01
 -1.7333010e-01   1.5477976e-02
  1.9332652e-01   3.5824332e-02
  5.9582110e-02   2.5842071e-02
  1.3193914e-01   8.8013604e-02
  2.4791665e-01   7.2156340e-02
  1.7544137e-01   2.1113453e-02
 -7.6232627e-02   8.2837708e-02
  1.0860893e-01   3.2847174e-02
  3.8644397e-01   1.9656695e-02
  2.7622652e-01   5.0661288e-02
  6.9289021e-02   6.9536850e-02
 -1.8971042e-01   6.4959913e-02
  2.8398242e-02   1.9732246e-02
  5.7361096e-01   2.5022463e-03
  8.6037628e-02   4.8293199e-02
 -2.6650885e-01   3.7701406e-02
 -2.5800166e-01   3.4982640e-02
 -7.3360562e-01   5.0710747e-03
 -7.4968636e-02   2.1594457e-02
 -2.3647066e-02   9.7008087e-03
 -3.6932424e-02   8.1599187e-03
 -4.3643636e-01   9.0917693e-03
 -3.3319342e-01   1.4256606e-03
 -7.2033130e-02   1.8500989e-02
 -2.2584258e-01   4.0207446e-02