 -1.3229109e-01   3.7988592e-02
  7.9615039e-01   6.7146532e-02
  4.8320331e-02   4.8709687e-02
  8.5668012e-02   4.4149674e-02
 -6.0420787e-01   4.4633284e-02
 -2.5901038e-02   3.3432532e-02
 -1.6598154e-02   9.0004653e-02
 -9.4810992e-02   7.5545900e-02
 -4.7876239e-01   7.7309050e-02
  2.4359562e-01   1.0161065e-01
 -7.4202627e-02   8.5026123e-02
 -3.4038940e-01   7.5383000e-02
  3.4230274e-01   8.3367944e-02
  1.2903690e-01   4.4232309e-02
  5.1103699e-01   1.0483980e-01
  1.7723650e-01   4.9088348e-02
  3.8873798e-01   6.0910746e-02
 -8.3966106e-02   7.8333557e-02
  9.5578916e-03   4.4972666e-02
  6.1239783e-02   1.1901487e-01
 -1.1099708e-01   1.0175069e-01
  5.9601021e-01   1.6946030e-01
  1.5408127e-02   1.6633935e-01
 -2.7424324e-01   8.6992301e-02
  2.5814763e-01   2.6258297e-02
 -1.0723700e-01   7.5906552e-02
 -2.5067374e-01   7.7927753e-02
 -6.6532865e-02   1.0714092e-01
 -1.0424858e-01   6.4242907e-02
 -2.9364005e-03   6.5245107e-02
 -9.1354311e-02   1.8275650e-02
 -2.2508144e-01   9.1812789e-02
  1.5928692e-01   4.4696599e-02
 -2.6952916e-01   6.2699668e-02
 -7.5199455e-01   3.8001124e-02
  3.5413226e-01   2.8119756e-02
  1.1323420e-01   3.3116017e-02
  3.7094426e-01   4.9905591e-02
 -2.9320320e-01   1.2485001e-01
 -2.5119492e-01   6.0531706e-02
  1.5232532e-01   3.8647000e-02
 -2.0860985e-01   4.1104391e-02
 -3.2243821e-01   3.9685082e-02
  4.2916369e-01   7.9821132e-02
 -3.4250706e-01   3.9414585e-02
  2.9438499e-01   9.4259091e-02
 -3.7175138e-05   2.0464242e-02
  2.5529909e-01   3.2501344e-02
  1.1468684e-01   7.4171059e-02
  6.6484571e-02   4.5792416e-02
 -4.3976765e-02   3.5899948e-02
  1.4188319e-01   7.6743335e-02
 -1.2701362e-01   6.9403753e-02
 -1.8693751e-01   7.2206698e-02
 -1.2941124e+00   1.3774599e-02
 -8.1664301e-02   7.4665815e-02
 -4.1669017e-01   7.6543957e-02
  4.8813152e-01   3.3018839e-02
  5.2508539e-01   1.2594552e-01
  1.4435169e-01   5.2321248e-02
  3.9735270e-01   1.0728591e-01
  3.2792094e-01   7.5812593e-02
 -1.7178942e-01   8.6705662e-02
 -2.8257430e-01   7.5345621e-02
 -4.0589118e-01   1.0235370e-01
  3.6110729e-01   3.8262609e-02
 -1.5592846e-01   4.6013635e-02
 -1.7227244e-01   1.2003174e-01
 -2.2165503e-01   2.0227311e-02
  2.2505012e-01   6.1778769e-02
  4.0355068e-01   2.1438982e-01
  3.7452942e-01   1.0424630e-01
  1.4080803e-01   8.2446843e-02
 -4.1932404e-01   5.7371538e-02
  5.2292652e-02   7.4731126e-02
  5.0059102e-02   3.7163191e-02
  3.6733854e-01   8.4210359e-02
 -1.7889667e-02   8.9342125e-02
 -9.8960304e-01   1.1196012e-02
  2.2399266e-01   7.6619945e-02
 -9.1228504e-03   1.0823869e-01
  2.0655370e-01   6.3392803e-02
  2.4084783e-01   3.9378554e-02
 -1.9879553e-01   7.4216999e-02
  1.3412626e-02   1.5386443e-02
 -3.7887999e-01   3.8427133e-02
  2.6107278e-01   4.2632107e-02
 -1.2207345e-01   9.1526508e-02
  4.6245191e-01   5.4504648e-02
  2.2125562e-01   4.5396451e-02
  1.9147839e-01   5.7155300e-02
 -2.7121899e-01   7.6393567e-02
 -1.5417804e-01   7.6589756e-02
 -8.2325421e-02   6.3927226e-02
 -2.4966319e-01   3.9794553e-02
 -4.9420339e-01   3.2181174e-02
 -2.3256484e-01   7.9991132e-02
  5.6771237e-01   4.1318618e-02
 -1.0073771e-01   1.2194905e-01
 -3.0010905e-02   5.3046990e-02
 -7.7444568e-02   1.0025863e-01
 -6.3889362e-02   7.1391232e-02
  1.5909956e-01   5.0085548e-02
 -2.3550747e-01   7.6348662e-02
 -3.8228229e-02   7.1771957e-02
  1.7769355e-01   1.1627450e-01
  2.3833573e-01   2.5336422e-02
 -9.4651975e-02   1.3056837e-01
 -3.1058702e-01   9.5209435e-02
  5.0937778e-01   4.1615162e-02
  8.0715477e-02   1.4639203e-01
  2.6966020e-01   8.4770694e-02
 -2.4153228e-01   3.7777558e-02
 -9.6249707e-02   1.0437257e-01
 -1.0640211e-01   8.7694719e-02
 -1.0178857e-01   8.9406744e-02
  1.1433843e-01   6.7571476e-02
  6.2761486e-02   4.0156849e-02
  2.3552103e-01   1.3400859e-01
  4.8254609e-01   7.6328866e-02
 -3.6045514e-02   1.3861051e-02
 -6.0359374e-02   8.0155626e-02
  7.3294029e-02   9.2863962e-02
 -2.7863151e-01   2.8411275e-02
  3.4966114e-01   7.8926802e-02
  4.6164101e-01   1.8800039e-02
  2.1105240e-01   3.0763036e-02
 -2.3999643e-03   9.5734820e-02
  7.3099062e-02   2.9084872e-02
 -4.3342513e-01   2.1959938e-02
 -9.5482610e-02   3.8702205e-02
 -4.6579495e-01   3.7906591e-02
 -1.2191814e-01   2.7885329e-02
  3.0365524e-01   1.3357228e-01
  2.9244006e-01   7.1170345e-02
 -3.3256859e-01   1.5603316e-01
 -2.2440252e-01   6.1668221e-02
  5.3192854e-01   3.9838362e-02
  3.0716833e-01   1.7077221e-01
  4.8284702e-02   1.0146050e-01
  1.7597844e-01   6.0161501e-02
  9.1582894e-02   4.6511427e-02
  2.1096505e-01   3.8321327e-02
  2.8007886e-01   7.4507967e-02
  1.4406887e-01   2.2509940e-02
  3.7480214e-01   1.3311033e-01
 -2.2730286e-01   8.1591778e-02
  2.5259918e-01   3.1734720e-02
 -1.8739302e-01   1.3330533e-01
 -4.0238130e-01   4.8513442e-02
  2.1384665e-01   5.6235485e-02
  1.8694188e-01   3.3804558e-02
  1.8474052e-02   6.4514004e-02
  3.6352119e-01   7.1192168e-02
  1.9155131e-01   4.1688431e-02
  2.1805890e-01   9.9485263e-02
  1.1193065e-01   9.3179092e-02
  1.0305551e-01   1.0428169e-01
 -1.2091080e-01   3.5087358e-02
  5.4064196e-01   8.6767249e-02
 -1.9550557e-01   7.8020290e-02
  4.3932852e-01   8.9186706e-02
 -9.4869165e-03   9.9977486e-02
  9.1034815e-02   1.0812535e-01
  1.5232331e-01   3.1602193e-02
 -5.6176299e-01   9.7661443e-02
 -5.4552361e-02   5.4427374e-02
 -1.5066800e-01   6.1104909e-02
 -3.4779817e-01   7.8547321e-02
 -5.5561680e-01   6.0568891e-02
 -3.0732983e-01   1.6268118e-01
  1.4257226e-02   4.4291105e-02
 -1.0430704e-01   8.3226666e-02
 -4.6660107e-01   4.3591630e-02
 -1.0043713e-01   4.9150269e-02
  4.2506263e-01   6.3899711e-02
  3.4167019e-01   1.2082750e-01
  7.1058339e-01   2.4008658e-02
  4.5225704e-01   2.5734788e-02
 -1.2956114e-01   7.8248657e-02
 -4.4875547e-02   1.3804460e-01
 -5.8555555e-02   1.3617307e-01
 -7.0411712e-02   1.0382731e-01
  1.1687271e-01   1.0961811e-01
  2.0763138e-01   6.8756901e-02
 -2.3728702e-02   6.2585361e-02
  3.0567002e-01   9.8635279e-02
  1.3320588e-01   8.3090127e-02
  2.6706234e-02   7.9248406e-02
  1.2093037e-01   1.5760572e-01
  2.2239393e-01   7.5631641e-02
 -3.0078539e-01   1.0438495e-01
  1.1088052e-01   5.4651074e-02
 -1.6821729e-01   1.6515200e-01
  1.2466984e-01   5.7559468e-02
 -4.1377163e-01   1.4337885e-02
 -1.0922547e-02   1.5414663e-01
  1.3220313e-01   8.6049244e-02
  7.3902845e-02   6.8190135e-02
  1.1973438e-01   8.9172773e-02
  3.3133036e-01   8.6629793e-02
  1.3710055e-01   2.2656746e-02
 -8.4268317e-02   7.2728738e-02
 -2.1850933e-01   8.5548788e-02
 -1.1302583e-01   3.4398608e-02
 -4.8039114e-01   1.7387246e-03
  3.2923025e-01   1.9452390e-03
 -4.1895482e-01   1.6781164e-03
  1.4824145e-01   2.4627943e-03
  5.6315994e-01   5.0293407e-03
  3.7647016e-02   1.1093266e-03
  1.4122264e-01   9.0117473e-03
  1.1819001e+00   2.6589031e-03
  3.5079730e-01   7.4558146e-03
  8.1903607e-02   5.9591755e-03
 -4.1199274e-02   3.9722710e-03
  6.1179990e-01   8.1018945e-03
 -6.4220458e-01   7.3513854e-03
 -5.9025828e-02   3.4420956e-02
 -4.0495399e-01   1.4674908e-02
 -1.5124680e-01   2.0392742e-02
  2.3604447e-01   8.3102537e-03
 -7.7244289e-02   2.8591543e-02
  1.0262111e-01   1.4620999e-02
 -3.0370587e-01   2.2141036e-02
 -2.6856956e-01   4.5527086e-02
 -3.5027403e-01   5.1072814e-02
 -1.1698972e+00   2.9583929e-02
 -9.3067527e-01   3.3133440e-02
 -6.6149640e-01   2.7948245e-02
 -2.3559631e-01   4.7445361e-02
 -1.8041809e-03   3.8139943e-02
 -3.3239877e-01   4.9262326e-02
 -3.6756539e-01   3.7492398e-02
  7.7449657e-02   2.6422162e-02
  2.3109587e-01   1.9600855e-02
  6.7904377e-01   2.8804773e-02
  1.4264701e-01   4.2607084e-02
  1.2331327e-01   5.5356346e-02
  4.2963377e-01   5.0867975e-02
 -1.1516589e-01   3.9354779e-02
  3.8501054e-02   1.1988076e-02
 -4.2049059e-01   5.3805452e-02
  2.8180281e-02   2.2679595e-02
 -6.8504685e-01   3.0087708e-02
  2.6270238e-01   1.6995370e-02
  1.7210983e-01   2.0257382e-02
  2.0636342e-01   5.7469219e-02
 -2.6922572e-01   2.2346221e-02
  5.5402007e-02   5.4115124e-02
 -4.7466218e-02   4.2686999e-02
 -8.1274390e-02   3.6989938e-02
 -2.2440965e-01   3.6116835e-02
 -1.9905522e-01   3.6539823e-02
 -7.4468292e-02   1.6251540e-01
 -4.1548085e-01   4.3241024e-02
 -5.7742614e-01   8.0936097e-02
 -1.5994853e-01   5.8343843e-02
  8.4005006e-02   3.2048374e-02
  1.9657044e-01   4.7239695e-02
  1.0066950e+00   5.0835948e-02
  7.9515934e-02   5.1657885e-02
 -1.5121713e-01   7.2356477e-02
  1.4512104e-01   7.9667710e-02
 -1.6679801e-02   4.0616266e-02
 -1.3138323e-01   3.4465708e-02
 -2.6287941e-02   2.5670741e-02
 -9.8205723e-02   9.0824075e-02
  5.0515604e-01   1.5399989e-01
 -3.1677139e-01   5.2275110e-02
  1.0885565e-01   5.3425089e-02
 -1.0972758e-01   4.8234489e-02
  1.0364426e-01   4.2347483e-02
 -8.2368739e-02   4.5826804e-02
  1.4130934e-01   5.6907024e-02
 -2.2419909e-01   8.9508362e-02
  7.6260939e-02   9.3561627e-02
 -2.9333785e-01   9.6479267e-02
 -1.6357404e-01   1.5233874e-01
 -2.9032058e-01   5.6470405e-02
  1.1156928e-03   3.8516451e-02
 -3.2870758e-01   9.7747520e-02
  1.0136802e-01   1.1295469e-01
  7.3946856e-02   1.0527734e-01
  1.3763347e-01   2.3844438e-02
 -9.3826741e-02   1.4041716e-01
  7.6912028e-01   1.6723303e-01
 -1.6743312e+00   1.1843852e-02
 -1.5222032e+00   1.2841476e-03
 -5.4488540e-01   3.8883609e-03
  6.9879413e-01   7.8533322e-04
  8.5332882e-01   4.9104234e-03
  4.1414979e-01   1.4407089e-03
  7.5407839e-01   7.1308711e-03
  9.3486421e-02   1.9020729e-03
  1.8144903e-01   5.1985378e-03
 -3.7507143e-02   8.1505794e-03
 -2.3373692e-01   1.2599983e-02
  4.7104976e-01   5.2542165e-03
 -4.0434813e-01   3.1421077e-03
 -2.6203650e-01   2.5351675e-02
  2.9736272e-01   1.6861876e-02
  9.1890335e-02   2.1836886e-02
  3.2737028e-02   1.8893532e-02
  1.4873727e-01   4.0646348e-02
  3.8823095e-01   1.8047173e-02
  2.9454705e-01   2.3826703e-02
  4.4921398e-01   9.4944060e-02
  3.0988508e-01   1.9415064e-02
  6.0051459e-01   1.9482104e-02
  2.1020982e-01   1.9678472e-02
  2.0783252e-01   3.8612049e-02
 -6.3840440e-03   2.0358965e-02
  7.8898594e-02   2.3747630e-02
  7.2144151e-02   9.9334940e-02
  5.3111398e-01   3.4854647e-02
  5.8082640e-01   9.0262610e-03
  1.6419908e-01   3.1933062e-02
 -2.1737337e-01   2.5764447e-02
  4.4653755e-01   3.1191489e-02
 -5.7862562e-01   4.2260773e-02
 -2.7834329e-01   1.0325011e-01
  7.2204310e-01   2.1687349e-02
 -6.1361887e-02   1.4203276e-02
 -2.3603004e-01   1.6707879e-02
 -1.9441557e-01   5.6237403e-02
 -1.3908340e-01   1.9319840e-02
 -1.6659852e-02   3.2736197e-02
  6.7776364e-01   2.5923004e-02
  7.3846120e-01   4.5129668e-02
  1.9708267e-01   4.2301197e-02
 -5.2926898e-01   1.7308099e-02
 -1.0594573e-01   5.3601958e-02
 -2.8082469e-01   3.5824317e-02
  3.0655062e-02   1.1829925e-01
  1.5374979e-01   6.0425002e-02
 -1.1760855e-01   7.1249165e-02
 -1.0160734e-01   1.1623451e-01
 -1.3008091e-01   1.0671166e-01
 -2.1114185e-01   5.1207259e-02
  1.9731431e-01   3.5496417e-02
 -3.0801496e-01   1.1307721e-01
  4.4729602e-01   1.2123407e-01
 -1.1857545e-01   7.4462697e-02
  3.1228238e-01   3.5606027e-02
  3.2349311e-02   3.4608472e-02
  9.1151726e-01   6.7934602e-02
 -6.7050236e-01   3.3794232e-02
 -8.5149348e-02   5.8416449e-02
 -1.6881090e-01   6.5375783e-02
  4.7807893e-01   1.2852618e-01
 -3.4547489e-02   4.1080222e-02
 -2.0130982e-01   7.0296496e-02
  7.9749024e-01   1.1086875e-01
 -4.0305074e-02   3.7316304e-02
 -6.3788760e-01   1.5570551e-01
 -1.1851078e-01   9.3664169e-02
 -5.7149518e-02   1.0161973e-01
 -1.8016383e-01   1.1037297e-01
  1.7675063e-01   3.9494347e-02
 -1.5399836e-01   1.7412703e-02
 -1.4755665e-01   5.3671941e-02
  3.6693147e-01   1.4090455e-01
  5.8884007e-01   4.1804597e-02
  2.0587562e-01   1.0085313e-01
  4.2410538e-02   2.4398651e-02
 -6.9870099e-02   1.3102993e-01
 -9.6980974e-02   1.5278323e-01
  3.7866187e-01   4.4434994e-02
  2.8064376e-01   1.9378195e-02
  2.1158560e-01   6.7440942e-02
  3.2747185e-01   6.0227763e-02
 -3.5315552e-01   7.0579953e-02
  2.2922768e-01   1.1628626e-01
 -1.9193850e-02   3.2026879e-02
 -3.2419316e-03   2.6753582e-02
  4.4360232e-01   7.6710194e-02
 -3.6208925e-01   9.4599076e-02
 -2.7863270e-01   2.3317581e-01
 -4.6228302e-01   3.7158791e-02
 -1.0360043e-01   7.4470975e-02
 -9.6393622e-02   3.0420100e-02
  9.7464770e-02   1.9007631e-01
  4.5250863e-01   3.2930776e-02
 -3.0189157e-02   8.9437753e-02
  2.6021469e-03   6.2250227e-02
  2.6356977e-01   5.4441791e-02
  2.2707449e-01   3.5846386e-02
 -4.2339858e-01   9.7546294e-02
  9.3258828e-02   1.0337843e-01
  1.1484274e-01   7.3924847e-02
  1.6897116e-02   9.0356402e-02
  1.5987362e-01   4.4235572e-02
  1.4044344e-02   3.9783262e-02
  1.3926491e-01   8.2827628e-02
  7.5075641e-02   2.7244207e-02
  1.0788375e-01   8.3395004e-02
  2.4346307e-01   1.1152875e-01
 -3.1882679e-01   7.7960536e-02
 -1.6462243e-01   1.1211860e-01
  1.4107375e-01   7.5911030e-02
  5.7570612e-01   8.7930456e-02
 -9.1144019e-01   2.3282802e-02
  3.5791937e-03   5.5905491e-02
  1.8838620e-01   6.4757340e-02
  1.3479388e-01   5.0278250e-02
 -1.1029142e-01   4.6563298e-02
  3.1966010e-01   5.2960172e-02
 -6.0845658e-02   1.0309219e-01
  1.7195642e-01   1.1980246e-01
  1.9266829e-03   1.0229255e-01
 -1.7334223e-01   6.0217205e-02
 -2.0917665e-02   1.0517531e-01
  1.1416595e-01   6.3760050e-02
 -3.2446215e-01   8.3591238e-02
 -2.5060654e-02   3.5455342e-02
  4.8800457e-01   1.1046638e-01
 -1.6696541e-01   5.0831985e-02
  3.2024883e-02   4.9969804e-02
 -1.1424298e-01   4.6068557e-02
  7.1909025e-02   7.2191015e-02
 -1.1027068e-01   4.2933539e-02
 -2.6616499e-01   6.1637193e-02
 -3.5602850e-01   5.7847932e-02
  4.0398499e-01   8.1052266e-02
 -4.0983114e-01   2.3804482e-02
  3.3151926e-03   9.4658516e-02
 -7.8897864e-02   7.6042406e-02
 -3.6996511e-01   1.1179467e-01
  3.4292009e-01   6.7009725e-02
  3.9597005e-01   6.8291813e-02
  4.3833473e-01   8.6844370e-02
 -1.0452015e-01   9.0547860e-02
  1.5378009e-01   3.4933612e-02
  6.7909881e-03   5.0217807e-02
  6.1040336e-01   3.9101791e-02
 -1.3241288e-01   1.1430744e-01
  2.2521572e-02   6.2552616e-02
 -1.1286938e-02   3.4968071e-02
  3.6936432e-02   6.7735590e-02
 -7.8092791e-02   6.5653197e-02
  6.4134844e-02   2.9184563e-02
 -5.1167536e-01   4.9419433e-02
 -2.0742647e-01   1.7267485e-01
  8.2450420e-01   6.5000556e-02
 -1.6968720e-01   1.4368308e-01
  8.0060102e-02   9.8870665e-02
  4.1437205e-02   4.4098124e-02
  8.3319142e-02   1.0169594e-01
  2.6699409e-01   5.2510444e-02
 -5.2985311e-01   1.9911436e-02
 -4.4206068e-01   5.3296138e-02
  1.8071020e-01   5.2991636e-02
  5.5287357e-02   6.8453729e-02
  1.4815596e-01   4.6833135e-02
  1.2191156e-01   8.6512364e-02
 -7.3477894e-02   3.2896180e-02
  7.1143520e-01   9.8947980e-02
 -4.1221373e-02   7.4256130e-02
 -1.9808784e-01   1.3419916e-01
 -1.4206627e-01   2.7326910e-02
 -3.7995365e-02   5.0129067e-02
 -4.1395685e-01   4.4042841e-02
  1.6039585e-01   4.4343978e-02
 -1.8677069e-01   4.8219156e-02
 -1.0044701e-01   9.9323198e-02
 -7.1294421e-01   4.3083604e-02
  1.4140962e-01   7.5946696e-02
 -1.0183016e-03   8.6565137e-02
 -2.8404620e-01   1.0080612e-01
  3.1420600e-01   1.2021548e-01
  3.6064228e-01   1.0623265e-01
 -1.8816361e-01   4.1250337e-02
  3.8023317e-01   1.0815804e-01
 -1.3597748e-01   1.5196103e-01
 -2.4398960e-01   6.1278325e-02
 -2.6809746e-01   1.5672429e-01
 -1.4922428e-01   1.2545860e-01
  2.4752732e-02   4.1075114e-02
 -7.3946142e-01   9.8927639e-02
  3.8027176e-01   3.8741827e-02
  7.0961908e-02   1.3260002e-01
  2.7695441e-01   1.4569034e-01
 -3.8552213e-01   1.0941256e-01
 -2.5936693e-01   7.0712201e-02
  4.2987436e-02   7.3886842e-02
 -7.4223429e-02   5.8582142e-02
 -1.1643396e-01   9.8362103e-02
 -9.8212674e-02   6.8829291e-02
  3.9373434e-01   3.2784782e-02
 -4.2141087e-02   2.8252285e-02
  2.1905068e-02   7.6123953e-02
  3.0860409e-01   4.8860189e-02
 -1.5788057e-01   5.1088385e-02
 -4.6632022e-01   9.9903390e-02
 -9.2301153e-02   7.1455941e-02
  6.2705338e-02   8.7176137e-02
 -3.2472408e-01   6.6296421e-02
 -4.9065775e-01   3.1931408e-02
  5.9490561e-01   3.7006311e-02
  2.8130332e-01   7.6928303e-02
  2.6026925e-01   9.3154967e-02
 -2.9806110e-01   2.7790636e-02
 -1.9091398e-01   8.9910157e-02
 -2.5246421e-01   6.1427500e-02
 -3.7729517e-02   2.6576588e-02
 -3.8357049e-01   8.1243068e-02
  4.9908829e-01   2.9074218e-02
  2.2294980e-01   5.3832792e-02
  3.4030136e-01   2.3861298e-02
 -6.8685931e-01   5.4765850e-02
 -1.7183273e-01   5.1942576e-02
 -3.3326726e-03   6.1729081e-02
 -4.4357488e-01   5.0601121e-02
  1.1444279e-01   1.2071951e-01
 -7.5958133e-01   2.2882039e-02
 -5.4538411e-01   9.5790379e-02
 -3.8442984e-02   7.5726472e-02
 -7.4036032e-02   1.0040451e-01
  1.0964178e-01   5.9194263e-02
 -5.3227969e-02   3.4652822e-02
 -4.1015866e-01   6.7335047e-02
 -1.8658483e-01   5.8920097e-02
  3.9874786e-01   6.3064732e-02
 -3.0790046e-01   6.8705805e-02
  2.8147215e-01   6.9520928e-02
  4.6721062e-01   1.7830133e-01
 -1.4872144e-01   4.3218721e-02
  1.9149566e-01   7.2106063e-02
  5.5286426e-02   4.5829535e-02
  5.0583404e-01   6.1929379e-02
 -3.1459746e-01   5.0521512e-02
 -2.9573095e-01   9.1682352e-02
  8.9624375e-02   1.1659110e-02
  8.6694889e-02   3.1930719e-02
 -1.2864201e-01   3.5687640e-02
  4.2945516e-01   3.3015966e-02
 -1.6307065e-03   1.6285893e-02
 -2.7798325e-02   6.9841765e-02
  3.8204604e-01   5.2733373e-02
  1.6160521e-01   3.7781317e-02
  3.8913693e-02   8.4965630e-03
  6.5911752e-03   2.0061322e-02
 -2.1635927e-04   5.9400186e-02
 -1.8387917e-01   3.0408340e-02
  1.1149147e-01   2.6003901e-02
 -3.1967676e-01   1.5382549e-01
 -7.5092614e-01   9.6824668e-02
 -9.3332127e-02   5.3590614e-02
  1.7232203e-01   1.0300518e-01
  1.2928393e-01   8.2384631e-02
  1.4632705e-01   4.3849371e-02
 -4.8434967e-01   7.1083762e-02
  2.0875765e-02   1.1302917e-01
 -8.6856253e-02   4.7800694e-02
 -5.5540040e-02   5.9320919e-02
 -1.9397968e-02   6.5595441e-02
  4.3215755e-01   1.1530775e-01
  2.5128245e-01   6.7002080e-02
 -2.9554701e-01   8.0031395e-02
  4.7181085e-01   3.2660954e-02
 -1.2688640e-01   1.1842337e-01
  3.4419291e-02   6.7262016e-02
  7.6691456e-02   4.4686131e-02
 -3.9947706e-01   4.2826410e-02
  6.8549430e-01   7.0094995e-02
 -3.2936439e-01   1.4773445e-01
  1.6601400e-01   8.9875117e-02
 -4.7468430e-01   9.2612274e-02
  5.4120064e-02   5.8849674e-02
  1.7509022e-01   1.0632724e-01
  1.0190436e-01   8.3990939e-02
 -1.8403096e-01   5.2937604e-02
 -6.9830984e-02   2.9637286e-02
 -1.3363864e-01   7.1521029e-02
 -7.9404242e-02   4.1036654e-02
  2.3097302e-01   5.5853646e-02
 -1.6651669e-01   1.6673449e-02
 -7.4248150e-02   1.0038619e-01
 -3.2171282e-01   5.1246949e-02
  1.8168463e-01   3.3174761e-02
 -3.6495826e-01   2.9872730e-02
 -5.3568184e-02   8.4787942e-02
  3.6974910e-01   8.2769305e-02
  7.5329876e-01   1.1241174e-01
 -5.4564938e-02   8.9616843e-02
 -1.5798405e-01   2.4342023e-02
  1.3076933e-01   6.2051009e-02
  3.9502788e-02   5.4100551e-02
  8.0052328e-01   1.0056697e-01
 -3.3799917e-02   4.9995162e-02
 -1.0163474e-01   7.9476997e-02
  2.9785800e-01   5.4413643e-02
 -4.2384890e-01   9.1028318e-02
  1.8291332e-01   2.0501399e-02
  2.8970009e-02   4.2949539e-02
  4.3970145e-02   3.9580356e-02
 -5.5829939e-02   7.8653499e-02
 -4.1918725e-01   1.4596227e-01
 -1.1118958e-03   3.6056008e-02
  3.5861331e-01   3.2230429e-02
 -6.1196454e-02   7.1560115e-02
  3.1555083e-01   6.5973453e-02
 -7.3181152e-02   7.1141630e-02
 -2.6112717e-01   5.8735792e-02
 -3.8084902e-02   1.5629897e-01
  1.5028805e-01   6.5081120e-02
 -6.8728948e-01   8.2565218e-02
  7.4722946e-02   2.2128180e-02
 -5.0425768e-01   1.0706596e-01
  1.6609925e-01   5.4306172e-02
  1.8973857e-01   1.1300700e-01
 -4.7440049e-01   1.5783556e-01
 -8.6368632e-01   6.5627582e-02
  1.6422516e-01   1.0479847e-01
  1.8754789e-01   1.3922364e-02
 -2.5228909e-01   3.7200950e-02
  8.6475414e-01   3.8346928e-02
 -7.6345342e-01   4.1595973e-02
  8.5743956e-02   1.1595995e-01
 -2.9037954e-02   4.4610146e-02
 -1.7720157e-01   5.2533016e-02
 -1.9523418e-01   3.7423324e-02
 -2.6642087e-01   3.9992489e-02
  1.2484099e-01   6.5704152e-02
  1.5215984e-01   6.1423752e-02
  7.1069568e-02   6.1273910e-02
 -2.5804394e-01   4.2337775e-02
 -1.3946393e-01   8.5131712e-02
 -3.2450891e-01   5.3823162e-02
  2.2795398e-02   9.2773832e-02
  1.9739591e-01   9.6897118e-02
  3.0718702e-01   1.3669474e-02
 -5.1564395e-01   7.1555376e-02
  4.5041284e-01   4.1915201e-02
  4.0203047e-01   5.5240039e-02
  1.9386534e-01   3.0521516e-02
 -1.1972565e-01   1.3032874e-01
 -1.0215794e-01   5.9699025e-02
  3.9612165e-01   1.1895796e-01
  2.2203315e-02   6.3966624e-02
  4.9590841e-02   7.0577376e-02
  2.6064363e-01   8.5273169e-02
 -1.0131044e-01   3.4111068e-02
  3.0070066e-02   5.5659052e-02
  2.2363146e-01   6.8806119e-02
 -9.2353582e-02   6.9768518e-02
 -4.2262298e-01   1.3091423e-01
  6.3716605e-02   5.9210490e-02
  5.0852992e-02   5.2613284e-02
  9.5646247e-02   1.2522711e-01
 -1.7362882e-01   8.2335927e-02
  2.0347078e-01   8.1941314e-02
 -5.3982520e-01   1.0258835e-01
 -4.2174330e-01   9.5257163e-02
  2.8850326e-01   1.6675757e-02
 -1.1061343e-02   3.9638143e-02
 -1.4707723e-01   2.9414847e-02
  7.0819896e-01   4.1924272e-02
 -5.2648848e-01   5.9257478e-02
  8.1019950e-01   2.2404414e-02
 -1.6272326e-01   9.2555530e-02
 -1.9171496e-01   4.7683399e-02
 -4.4963700e-01   2.3694534e-02
  2.0335294e-01   4.1263271e-02
  5.7730418e-01   6.8503506e-02
 -2.4115992e-01   4.2843919e-02
  1.8941805e-01   1.2904723e-01
 -6.5462813e-02   5.5818737e-02
 -2.0194153e-01   1.1859667e-01
  3.2089878e-02   1.4609525e-01
 -1.9299403e-01   4.5312472e-02
  6.2127147e-02   7.2170541e-02
 -6.6011250e-02   6.8610899e-02
 -1.8138692e-01   6.5535128e-02
  7.1609579e-02   1.6225654e-01
  3.3902869e-02   2.8663555e-02
 -1.4656408e-01   4.4756450e-02
 -3.5935074e-01   6.8441354e-02
  1.7698804e-01   2.9825401e-02
  2.0999284e-01   6.2989667e-02
 -4.5828289e-01   9.7809620e-02
  2.3752242e-01   5.7219025e-02
 -3.2830378e-01   4.1944299e-02
 -3.7115671e-02   3.2535177e-02
 -8.0600470e-02   8.2576461e-02
 -5.8670595e-02   8.3452426e-02
 -1.3276996e-01   9.2176765e-02
 -3.4656361e-02   4.5544401e-02
 -1.1044218e-01   2.5539784e-02
 -2.9854274e-01   8.6323030e-02
  1.0752168e-01   7.8970350e-02
 -9.6332443e-01   4.1986521e-02
 -1.2682171e-01   1.9975267e-01
  2.1221462e-01   9.1522783e-02
 -3.0578762e-01   6.5231420e-02
  1.7482996e-01   5.7159346e-02
  5.3534293e-01   1.0521689e-03
  6.2734115e-01   1.7735476e-03
  2.3586145e-01   3.1253875e-03
 -6.1105275e-01   7.6004298e-04
 -4.4762078e-01   2.8595801e-03
 -8.8036641e-02   1.1564433e-03
  2.8840053e-01   2.0408602e-03
 -1.3856184e+00   2.1236115e-03
 -4.6484491e-01   3.7271127e-03
 -2.1874391e-01   9.1349557e-03
 -1.1029716e-01   4.4480693e-03
  6.3795853e-01   4.9140644e-03
  1.8041986e-01   3.3138439e-03
 -8.5029924e-01   2.4360724e-02
  5.1096243e-01   2.0210311e-02
 -9.4899702e-01   1.5069550e-02
 -8.4437716e-01   1.0182342e-02
 -1.0713046e-02   1.9274095e-02
 -1.8162188e-01   1.3187598e-02
  1.0004902e-01   1.9166300e-02
  1.3262752e+00   3.4070328e-02
 -1.1573977e-01   2.2347342e-02
  1.9702089e-01   1.0637153e-02
 -1.3867716e-01   1.3633852e-02
 -3.7045845e-01   2.2469547e-02
 -1.4594471e-01   2.6946947e-02
 -2.3020041e-01   1.8829115e-02
 -8.5874021e-01   2.7482113e-02
  2.5419846e-01   2.9963003e-02
 -1.0368146e+00   1.0277888e-02
  1.2503319e+00   9.3928883e-03
  2.7209446e-01   1.0873250e-02
  1.4739344e-01   3.6505792e-02
 -1.8291900e-02   5.2042563e-02
 -2.1577774e-01   4.4494260e-02
  5.2262151e-01   2.4752432e-02
 -4.0962244e-03   2.8963801e-02
  7.9294944e-01   1.3853756e-02
  2.6605548e-02   1.6225580e-02
 -2.5600898e-01   2.1199662e-02
  1.3135093e+00   1.6180549e-02
  2.2007705e-01   2.4267426e-03
 -7.0785242e-01   1.6638638e-02
  5.8869100e-01   4.9148053e-03
  2.3632163e-01   4.4841532e-02
  2.9518279e-01   2.4191989e-02
 -7.2453266e-01   2.4441842e-02
  1.2280779e-01   1.0063568e-02
  4.2658314e-01   1.0697036e-02
  4.3563627e-02   2.7473168e-02
  8.5771471e-01   1.8205442e-02
  2.2744742e-01   1.4774664e-02
 -2.1750091e-02   2.1891519e-02
 -4.6110001e-01   2.4542788e-02
  9.5161729e-02   5.9833143e-02
 -8.2129076e-02   8.3328359e-02
  1.2440454e-01   3.1892281e-02
  9.6096173e-02   5.6172572e-02
 -5.1910818e-02   4.6500053e-02
 -3.9609861e-01   5.7513297e-02
  1.3867748e-01   6.9349356e-02
  2.3134342e-01   1.3062110e-02
  1.6976064e-02   1.0613828e-01
  3.6761445e-01   5.7260904e-02
  2.8508410e-02   2.5629278e-02
 -3.5881508e-02   5.1448021e-02
 -5.2519190e-01   8.9218758e-02
 -3.1981912e-01   9.8945841e-02
 -1.6484202e-01   6.6823363e-02
 -9.1926903e-02   7.7604048e-02
  1.2296571e+00   4.6453357e-02
  6.5498388e-01   7.9157211e-02
  1.1900719e-01   3.1124294e-02
 -1.2490818e-01   3.7679963e-02
  3.1989727e-02   5.0246317e-02
  4.6568269e-01   1.1521716e-01
  1.6827390e-01   1.2153081e-01
  7.5028181e-01   1.6643371e-02
  6.5336788e-01   9.9738888e-02
 -4.9170278e-02   4.2111631e-02
 -1.6526176e-01   3.3994835e-02
  2.3871121e-01   3.4685213e-02
  1.6279988e-01   2.5575828e-02
  2.6170117e-01   1.4803479e-02
 -1.0945568e-01   4.2997718e-02
  3.0337387e-01   9.0062730e-02
 -9.9689201e-02   6.2737793e-02
  4.0486374e-01   1.4846484e-02
  1.1984776e-01   5.9672739e-02
  8.2217433e-02   6.6495359e-02
 -3.0487680e-01   5.7144541e-02
 -6.1991911e-02   3.4028322e-02
 -4.5228016e-01   1.1533988e-01
 -6.6275597e-01   3.7284803e-02
 -2.3929322e-01   5.5249870e-02
 -2.0322035e-01   1.1384131e-01
 -1.4578520e-01   8.3443925e-02
 -4.2185473e-01   1.1765080e-01
 -3.7411541e-02   3.7727945e-02
 -1.3928179e-01   6.7800604e-02
 -2.6422685e-01   1.4550148e-01
 -2.2147436e-02   1.2583491e-01
  1.5611185e-01   3.9296716e-02
  3.8588473e-01   1.2441274e-02
  1.0428638e+00   2.4226580e-02
  2.3582424e-01   7.4714392e-02
  4.8479629e-01   5.5873964e-02
  4.2180979e-01   8.8816851e-02
  2.3111165e-02   3.4254007e-02
  2.1803345e-01   3.1508200e-02
  1.3598225e-01   5.0076056e-02
  2.3619598e-01   6.6302992e-02
 -2.8730831e-01   9.8002613e-02
  4.9231842e-02   1.0104374e-01
  3.4538604e-02   3.9650783e-02
 -1.4999031e-01   1.3106628e-01
  8.9824915e-01   1.5329988e-01
  8.2141101e-02   1.0159502e-01
  3.6635733e-01   3.0287979e-02
  3.1181827e-01   4.2341888e-02
 -1.2335288e-01   1.2957273e-01
 -2.6488131e-01   2.5854357e-02
 -4.3630207e-01   4.4852201e-02
 -4.5247826e-01   5.6070030e-02
  8.2130432e-02   9.1960438e-02
  1.0254594e-01   7.6631241e-02
 -6.3308841e-01   6.8523683e-02
 -9.1478236e-02   1.1346550e-01
 -1.4926526e-01   5.5110525e-02
  4.3912765e-01   6.7440554e-02
 -2.4041070e-01   5.6119487e-02
  3.1218892e-01   8.8186964e-02
  2.7610663e-01   1.0644071e-01
 -4.9631047e-01   1.3265112e-02
  2.4985172e-01   7.5074598e-02
  3.5423332e-01   1.2167306e-01
 -2.4057219e-02   6.7716837e-02
 -2.9561939e-02   9.3165882e-02
 -4.8393898e-02   4.0083617e-02
 -2.7849901e-01   7.1596123e-02
 -5.8691114e-01   7.4222982e-02
  8.6213313e-02   5.3032503e-02
 -1.6527008e-02   1.8695734e-02
  4.2480189e-02   5.7326335e-02
  3.0774164e-01   1.1830019e-01
  2.3073152e-01   1.8284177e-02
 -1.8719098e-01   6.0512904e-02
 -1.3087541e-01   5.8808565e-02
  2.0614019e-01   8.3474867e-02
  1.9667514e-01   1.3778567e-01
 -3.2730904e-01   9.2079088e-02
  4.7082942e-02   4.4292923e-02
 -7.7583548e-03   1.2254029e-01
  2.4355924e-01   1.5555267e-01
 -7.4075645e-01   5.9960324e-02
 -5.9253591e-01   6.8193346e-02
 -1.1928146e-01   7.7669084e-02
  5.2521054e-02   1.2684244e-01
 -6.4921230e-03   1.6169629e-01
  4.0962669e-01   8.6683609e-02
 -1.8609870e-02   3.8952779e-02
  1.6528133e-01   6.4272821e-02
 -3.2756597e-02   7.7966340e-02
 -1.4500222e-01   7.8167118e-02
  5.8821803e-01   1.6403316e-02
 -1.3595970e+00   2.9943809e-03
 -2.5612313e-01   4.2047817e-03
  1.1247616e+00   2.3081452e-03
  8.4237265e-04   1.0413046e-02
 -1.0693835e+00   1.7361854e-03
 -1.6241570e-01   1.9779537e-02
  3.7003046e-01   7.7277645e-03
 -5.0834507e-01   1.4762610e-02
 -2.1416105e-01   2.6095962e-02
  9.7163692e-02   2.7082808e-02
  1.8419324e-01   1.8336562e-02
  2.3188205e-01   9.1466121e-03
  1.6986815e-02   1.4503716e-01
  3.6389716e-02   7.0287749e-02
 -3.0658662e-02   4.7242880e-02
  3.5625181e-01   1.7083736e-02
 -4.3332577e-01   3.6485806e-02
 -4.2903030e-01   5.7941560e-02
  3.6471803e-03   1.0799314e-01
  2.2553363e-01   1.1997133e-01
  3.4881493e-01   8.4721155e-02
 -6.7281891e-03   4.1884813e-02
 -5.1917940e-02   4.1126937e-02
 -2.7965808e-01   3.4424447e-02
 -5.0708550e-01   4.5514368e-02
  2.9849023e-01   6.7612715e-02
  2.2338383e-02   1.3069251e-01
  4.5669487e-01   4.0863667e-02
 -1.7695679e-01   3.3729047e-02
 -8.4265262e-02   5.9612889e-02
 -2.1133485e-01   6.1977271e-02
  2.3998521e-01   5.5970155e-02
  7.1779080e-02   3.3120435e-02
  3.0551004e-01   6.6775516e-02
 -5.1622204e-02   6.2908240e-02
  1.4461114e-01   8.4312469e-02
  5.6003809e-01   9.6403323e-03
  5.2616322e-01   3.9164223e-02
 -3.7561633e-02   6.4669400e-02
  5.5418912e-02   9.9535890e-02
 -2.8958139e-01   4.3988660e-02
 -6.0875449e-02   6.2187705e-02
  1.6117308e-01   6.5631941e-02
  2.6410836e-01   9.7658634e-02
  6.0826696e-02   2.1030527e-02
  8.2279816e-02   4.8851240e-02
  2.3940516e-01   5.6563355e-02
 -3.9503377e-02   1.1384067e-01
  7.1839291e-01   6.8221636e-02
 -4.0835544e-02   2.5386304e-02
 -2.0166199e-01   3.5619099e-02
 -1.5554470e-01   8.5711896e-02
  2.8516907e-02   4.8739716e-02
  9.1692597e-02   4.7018852e-02
 -2.8553474e-01   2.6585964e-02
  7.2765030e-02   9.1339700e-02
  2.3733728e-02   1.2161084e-01
 -3.8943235e-02   1.7652253e-02
 -4.6965886e-02   3.1028507e-02
  3.2068479e-01   3.6840681e-02
 -1.3822578e-03   5.0610770e-02
 -1.4183737e-01   1.3034356e-01
 -2.6352710e-01   8.1204601e-02
 -3.1661814e-01   8.0245800e-02
 -1.9010228e-01   5.5756658e-02
  2.6707613e-01   8.0137111e-02
 -3.8423914e-01   8.7933794e-02
  4.0173344e-03   1.1289611e-01
 -4.8813283e-02   6.8823628e-02
 -1.0101546e-01   2.9958200e-02
 -3.9991677e-01   4.3586172e-02
 -1.0048645e-02   8.8101767e-02
  1.1630391e-01   5.4932863e-02
 -1.7989594e-02   9.4494909e-02
  6.1533868e-02   7.0490964e-02