  9.2542273e-01   2.6547326e-02
 -6.9019690e-02   2.3771282e-01
  2.3699483e-01   4.7107533e-02
  2.7307299e-01   5.1829744e-02
 -8.1223792e-01   9.5534891e-02
  2.0177388e+00   1.4063886e-01
  1.6186749e+00   2.6544124e-01
 -2.9736528e+00   4.4583924e-02
 -3.0782473e-01   3.1051431e-02
 -1.5220279e+00   2.9908556e-02
  8.6440074e-01   2.2273822e-02
 -2.8633484e-01   1.5386386e-01
  6.2567539e+00   2.6209081e-02
  3.1636238e-01   8.7518506e-02
  1.8103579e+00   2.5018767e-01
  1.2599850e+00   2.5334516e-01
 -1.7375876e-01   2.9361600e-02
  5.6053691e+00   7.9217725e-02
 -1.2650956e+00   2.7029393e-02
 -3.0782610e-01   1.0938574e-01
  1.1673478e-01   5.8410045e-02
  3.9187598e-01   1.9414549e-01
  4.9498421e-01   1.3765691e-01
 -4.4961357e+00   7.9017945e-02
  6.4682275e-02   1.5420260e-01
  1.0678016e+00   3.0501711e-03
  4.4017222e-02   3.6405448e-02
 -1.7554833e+00   1.7726988e-02
 -2.1451328e+00   1.0123385e-01
 -9.6509159e-02   1.7189804e-01
 -1.7354797e+00   2.4499658e-02
 -9.1200709e-01   8.2912557e-02
 -2.1520211e-01   4.1554485e-02
  2.4276155e-01   1.6837445e-01
 -6.2648720e-01   1.7195639e-01
 -1.8872334e+00   2.4409367e-02
  4.8058498e-01   1.6708760e-02
  1.0658571e+00   2.6937710e-02
 -4.3505046e-01   1.8959265e-02
 -2.0068440e+00   8.4608430e-03
 -1.0023193e+00   9.5107220e-02
 -7.3867869e-01   1.7924223e-02
 -3.7714980e+00   3.3975441e-02
 -2.7534771e+00   1.9880567e-02
 -6.9236594e-01   3.3271264e-02
 -2.6714332e+00   6.0104709e-02
 -3.5956950e+00   4.0912934e-02
  5.3087277e+00   3.4512021e-02
  7.1384621e-01   3.6380403e-02
  3.0277142e-01   5.5620681e-02
  3.8511608e+00   1.1065334e-01
 -3.6110055e+00   4.5948721e-02
 -8.2224804e-01   1.2749535e-02
  2.6479974e+00   3.1407066e-02
 -4.5975137e+00   2.2599466e-02
 -1.1582507e+00   1.5077059e-01
  3.9279938e-01   4.6237756e-02
 -1.6037834e+00   4.5213941e-03
  4.8271111e-01   3.0308355e-02
  1.7524042e+00   4.6064764e-02
 -5.5099850e+00   4.0224083e-02
 -1.5182741e+00   6.2450226e-03
 -3.4114454e+00   2.1388054e-02
 -1.3152187e+00   4.8470005e-02
 -5.4619780e+00   2.8694283e-02
 -1.1861157e+00   6.7873141e-03
 -1.7251037e+00   9.5214974e-03
 -8.4432173e-01   1.9023413e-02
  4.8642954e-01   2.0074187e-02
 -5.9214073e-01   1.3123164e-02
 -1.7004563e+00   1.7963838e-02
 -2.5421515e+00   2.4550119e-02
 -4.5387998e-01   9.6598146e-03
  1.2720343e-01   3.5451872e-03
  6.3995457e-01   3.5061755e-03
 -1.0988733e+00   1.2608218e-03
  7.2143948e-01   7.2647450e-03
  5.0961148e-02   2.8562779e-03
  5.9022528e-01   1.5321277e-02
  1.3167136e+00   1.0858794e-03
  6.4403391e-01   5.4123565e-03
  4.1813221e+00   1.4902396e-02
 -5.0343972e-01   3.2884900e-02
  2.2193897e+00   7.4459394e-03
 -1.4050653e+00   5.7106712e-03
 -1.6421958e+00   1.9041829e-02
  2.4380577e-01   6.8723643e-03
 -8.7637860e-01   5.1841154e-03
 -1.7130101e-01   6.5124868e-03
  3.1658630e+00   6.4225947e-03
  1.7614435e+00   3.5248313e-02
 -2.7512989e+00   5.0208722e-03
 -7.8341031e-01   3.4810500e-03
  4.9916024e+00   7.6178904e-03
  4.0471977e-01   2.0992747e-02
  1.8013959e+00   3.5162557e-02
 -1.2250792e+00   1.8909927e-02
 -2.0048552e+00   7.7295038e-03
 -1.9451722e+00   3.1901039e-03
  1.2027583e+00   3.9578038e-03
  1.3722818e+00   1.0691196e-02
  2.5678759e+00   2.2085933e-03
  2.6260700e+00   2.9286463e-03
  1.6600206e+00   1.3890058e-02
  4.5957642e+00   1.2811241e-02
  1.8986093e+00   2.8333655e-03
  5.1370001e-01   1.0940038e-02
 -3.6175623e+00   5.9670783e-03
 -2.5466321e+00   8.2331054e-02
  2.2382748e+00   6.7501426e-02
 -4.8618093e-02   8.1817143e-02
 -1.1529131e+00   1.8997386e-01
  7.9871082e-01   5.4651119e-02
 -6.5969458e+00   3.9045297e-02
 -1.8748304e+00   1.0261529e-01
 -2.3366301e-01   4.2565113e-01
 -2.7836988e+00   1.6988747e-02
  1.4686645e+00   7.8200594e-02
 -1.5407112e+00   4.7839466e-02
  5.6261868e+00   4.2960208e-02
  2.1650276e+00   1.9154843e-02
  1.3090278e+00   1.9548747e-01
 -1.3765286e-01   2.0827405e-01
 -1.3172148e+00   1.7511158e-01
 -1.4844297e+00   1.3448359e-01
  2.0046196e+00   2.4059805e-01
 -9.3050963e-01   2.9183170e-01
  3.9063170e+00   3.0230540e-01
  6.6297382e-01   1.3793011e-01
 -1.1727628e+00   2.2170885e-02
  1.0304686e-01   1.8773514e-01
  1.6490081e-01   1.9591928e-01
  4.9383464e-01   4.8618052e-02
  5.3430927e-01   8.6535968e-02
 -4.6533400e-01   7.9094261e-02
 -2.5900877e+00   2.4880891e-01
 -6.0021555e-01   1.4385019e-01
  4.7495513e+00   4.9756177e-02
 -1.3194722e+00   9.6343979e-03
 -1.6925164e+00   9.4635412e-03
  4.4579663e+00   4.3969169e-02
 -3.5121256e-01   4.6078693e-02
  3.5697522e+00   9.1893829e-02
 -7.5522524e-01   1.9213136e-02
  4.7971946e-01   4.8467044e-02
  2.2482082e-01   6.7334078e-02
  5.2455992e-01   6.6592023e-02
 -9.2507619e-01   2.3040691e-01
 -4.0344024e-01   1.4904590e-01
  7.6093650e-01   4.7493935e-01
 -1.3752034e+00   8.7499410e-02
  1.4467661e+00   6.0328234e-02
 -5.3015840e-01   3.0900583e-02
 -1.9922339e+00   1.2284451e-01
  5.2269268e+00   3.6582351e-02
  3.7490950e+00   5.7013478e-02
 -1.2548670e-01   8.3909184e-02
  5.9057730e-01   4.0177867e-01
 -3.7800443e-01   1.2934092e-02
  1.4608283e+00   5.9297729e-02
 -1.6707758e+00   1.5264809e-01
 -1.1577686e+00   2.1376710e-01
 -1.9422413e+00   2.9910207e-02
  7.7522345e-02   1.5601519e-02
  6.5591842e-01   6.9370302e-03
  1.0762870e+00   1.1762755e-01
 -2.5572793e+00   9.9038474e-02
 -1.7191179e-01   1.4326808e-01
  1.4754912e+00   1.3913852e-01
 -7.7606139e+00   7.1848869e-02
 -1.2171330e-01   9.9336468e-02
 -6.7271835e-01   1.1965270e-01
 -1.6229128e+00   2.6856443e-01
  4.5295474e-01   9.6019566e-02
  4.4033031e+00   1.4871547e-01
  4.2650514e+00   5.3254612e-02
 -2.3958507e+00   2.2735018e-01
  9.0459102e-01   9.9640794e-02
  3.0108079e-01   2.8740895e-01
  9.7759223e-01   2.2866842e-01
  5.1113687e+00   3.3446901e-02
  2.9700002e-01   1.1732914e-01
  6.4656532e-01   7.1893139e-03
  3.0949366e+00   8.2203180e-02
 -8.9797038e-01   6.8559296e-02
  3.8300316e+00   2.1214771e-01
  1.0960031e+00   6.5203197e-02
 -1.8046319e+00   5.3008277e-02
  1.3179347e-01   8.8342078e-02
  1.0626762e+00   6.5411970e-02
 -2.0277843e+00   9.5195025e-02
  3.4226173e-01   8.9042217e-02
 -2.0061152e+00   5.2019216e-02
 -1.8778236e+00   1.2865575e-01
 -9.3744999e-01   6.4196587e-02
  1.9505203e-01   2.7173772e-01
  2.3288596e+00   1.3179807e-01
  1.6837715e+00   3.1934090e-02
 -1.6425574e-01   1.9605760e-01
 -3.0937369e+00   2.6328561e-01
  1.3878745e+00   4.2668395e-02
  1.0010991e+00   8.5826084e-02
  1.9664959e+00   6.8420351e-02
  6.2179780e-01   4.2668145e-02
  2.6397345e+00   1.0693532e-01
 -2.8642642e-01   1.0439679e-01
 -1.9933228e+00   7.0800178e-02
 -9.1957653e-01   2.1873821e-02
 -2.4435844e+00   1.6143907e-02
 -5.2419066e+00   5.1868517e-02
 -3.0416858e+00   6.4442635e-02
  1.9143845e+00   2.4586481e-01
  4.2788920e+00   3.7360378e-02
  1.3938745e+00   9.7256809e-02
 -2.1399329e+00   1.1526172e-01
  8.5368037e-02   1.3075790e-01
  4.0029556e-01   1.5827161e-01
 -1.7069966e+00   1.5050523e-01
 -1.6173711e+00   1.8230221e-01
  1.6590075e-01   9.3347691e-02
 -2.7735612e+00   1.8651480e-02
  1.1551127e+00   9.7130723e-02
 -2.1277816e+00   2.8433987e-01
 -3.0009739e+00   4.8985727e-02
 -1.0069722e+00   2.3601647e-02
  1.2809573e+00   5.9148539e-02
 -5.2090007e-01   2.4566098e-01
  5.8281903e+00   1.1762108e-01
 -7.0914280e-01   1.7918463e-01
  6.0772479e-01   9.5505334e-02
 -1.9646738e+00   1.4722778e-02
  1.4380780e-01   7.2357737e-02
  1.4393095e+00   2.1469885e-01
  1.7388824e+00   1.0654789e-02
 -1.1629438e+00   3.0406362e-01
  1.7855364e-01   9.3729697e-02
 -4.2033160e-01   3.2195259e-02
 -4.9873090e-01   1.8231489e-02
 -1.4788269e+00   1.8667395e-01
 -2.5205288e+00   1.1085691e-01
  1.9884942e+00   3.4050155e-02
 -5.2790517e-01   2.1636344e-01
  2.0591412e+00   2.2692052e-01
 -8.7715292e-01   2.1509111e-01
 -3.6572653e-01   4.6131868e-02
  3.2066774e+00   8.1653781e-02
  4.9040956e+00   2.7782130e-01
 -3.1773708e+00   2.4786094e-02
 -1.1523273e+00   1.2320823e-01
 -6.8383536e+00   9.8780999e-03
  1.1930460e-01   2.4480656e-01
 -1.5661708e-01   3.7704408e-01
 -2.3392351e-01   1.5314295e-02
 -8.1608909e-01   1.4455922e-02
 -2.5344784e+00   9.5869349e-03
 -2.5929997e+00   1.3993751e-02
 -2.0195165e+00   1.6475480e-02
 -3.3403084e-01   2.9048925e-02
 -3.6506560e-01   7.8131221e-02
 -1.6657619e+00   1.4758728e-02
 -2.1654513e+00   3.3466190e-02
 -1.4165697e-01   1.0832625e-01
 -1.6299813e+00   1.5046488e-01
  1.6615332e+00   2.0810924e-02
  3.4027819e-02   1.5334630e-02
 -2.9793365e+00   8.3648130e-02
 -5.4883850e-01   9.4230779e-02
 -1.8267541e-01   3.5909835e-02
  6.0281533e-01   1.1773569e-02
 -2.9836943e+00   6.6657490e-03
 -2.1921158e-01   1.5047720e-01
  3.0909476e+00   1.0571657e-02
  1.6325109e+00   8.3172070e-03
 -1.0810486e+00   1.2565465e-02
  8.0572583e-02   6.4925714e-03
  1.7706679e+00   7.1224414e-02
  5.8924609e-01   9.9419653e-02
 -1.1734331e+00   2.6326604e-02
 -2.6253273e+00   7.0419699e-02
  3.6047220e+00   1.1160485e-02
 -1.9430492e+00   8.4334143e-02
 -1.8590546e-01   1.3398777e-02
 -8.3382595e-01   3.9186426e-02
  3.0235004e-02   6.9941260e-02
  5.1043075e-01   1.9698324e-02
 -2.3997278e+00   5.4913517e-02
  8.6914557e-01   3.5362333e-02
 -1.4760981e+00   8.2867011e-02
 -2.2150514e+00   4.8112120e-02
  8.8457368e-02   8.7684030e-03
 -7.3603468e+00   3.0526353e-02
  1.0808206e+00   4.9102552e-02
  4.6787825e-01   1.8317497e-01
  1.2300576e+00   1.0904253e-01
 -8.2610780e-01   3.0380273e-02
 -2.3959087e-01   5.3380895e-02
 -1.0084724e+00   3.1566492e-01
 -1.0932534e+00   7.6318234e-02
 -8.0958933e-01   3.0422547e-01
  4.8104024e-01   1.2349392e-02
  1.2938516e+00   1.2227103e-02
  2.9402618e+00   1.8494299e-02
 -3.9688706e+00   2.0893900e-01
  3.1225927e+00   3.3644149e-01
 -6.5966809e-01   8.2342379e-04
 -1.0397582e+00   2.7323332e-02
 -1.0263662e-01   1.0282038e-01
 -1.4317939e+00   7.1559571e-02
  4.1785273e-01   2.3743901e-02
 -8.4895056e-01   4.4078313e-02
 -2.1943338e+00   6.4363107e-02
 -2.1205933e+00   7.3391341e-02
  8.2673377e-01   2.0907531e-02
 -3.0767488e+00   1.8262419e-01
  3.8936764e-01   2.2914422e-01
 -2.3887672e+00   1.6203272e-01
 -8.4165871e-01   5.9120171e-02
  2.0253935e+00   2.1623872e-02
 -5.8444266e+00   2.2320155e-02
  1.3767558e+00   2.3680477e-01
 -2.0514183e+00   1.4353086e-01
  1.4268885e+00   1.3050541e-01
 -1.2383302e+00   4.1116823e-02
 -1.9026540e-03   9.3966965e-03
 -2.1097317e-01   1.1757006e-01
 -1.2295623e+00   1.0916906e-01
  1.9064975e+00   1.7358379e-01
  5.3656989e-01   1.7952313e-01
 -1.6073518e+00   1.3967457e-01
  4.1016698e-01   4.7097143e-02
  9.8848152e-01   5.0074792e-01
  4.5157306e-02   2.5972577e-02
 -1.6234837e+00   9.2152679e-01
 -3.4187758e-01   3.1037208e-01
  2.3929732e+00   2.8200729e-02
 -5.1810484e+00   1.0169227e-01
 -2.1731014e+00   1.4365327e-01
  4.0310988e+00   5.6453183e-02
 -5.7537772e-02   3.0106246e-01
 -8.6320907e-01   1.5842339e-02
 -1.0974706e+00   2.4185666e-01
  4.7194786e-02   1.0537855e-01
 -6.6263300e-01   5.9467509e-02
 -1.8202920e+00   8.6210704e-01
  4.2679317e-02   6.4606540e-02
 -1.6049749e+00   1.2273032e-02
 -4.8286602e-02   7.9792276e-02
  2.0956845e+00   2.6802498e-01
 -6.4512432e-02   7.6607473e-02
 -2.3861226e-01   5.3925842e-01
  2.4792316e+00   4.0187758e-01
  3.6178586e+00   6.4477608e-02
 -1.0877083e-01   8.9163408e-02
  2.4940038e+00   2.7691022e-01
 -9.5504832e-01   2.2723442e-01
  5.9433073e-01   3.2184821e-02
 -1.4212453e-01   1.9445644e-01
 -4.4219017e+00   5.0959758e-02
  2.6859465e-01   2.0206422e-01
  3.2164639e-01   3.7879884e-02
  7.3052425e+00   4.5546938e-02
  4.0865812e-01   1.5694036e-01
  1.6031399e+00   2.4505201e-01
 -1.8744169e-01   4.6504375e-02
  1.2089125e-01   1.3654259e-02
 -2.9035628e+00   2.8458437e-02
  2.5714021e+00   3.5759714e-02
 -4.0188242e-02   1.5641940e-01
 -6.7279714e-01   5.7333976e-02
  1.6671323e+00   1.2049241e-01
  3.1079304e+00   1.1217444e-01
 -5.0149786e-01   4.8517427e-01
  9.8382843e-01   3.0112796e-02
 -4.5413241e-01   1.9286089e-01
 -1.5337837e+00   1.4976306e-01
 -5.6767142e-01   3.3159781e-02
  5.6884986e-01   1.3294831e-01
  1.3202053e-01   1.3331999e-01
  1.1225365e+00   1.2837806e-01
 -3.1984690e-01   1.3665843e-02
  1.0509274e+00   2.2808674e-01
 -1.2171866e+00   1.7410465e-01
  1.6680278e+00   5.4962046e-02
 -5.9003341e-01   1.1975566e-01
 -1.4527161e+00   5.6455061e-02
 -1.3966777e+00   7.3081970e-02
 -2.2060077e+00   1.0323446e-01
 -1.7397082e+00   4.7706854e-01
 -2.6062987e+00   3.4913227e-01
  3.7680575e-01   7.0776232e-02
  1.1844748e-01   2.6943561e-02
 -5.2456027e-01   1.7197268e-01
 -7.7967639e+00   4.7546543e-02
  8.5292327e-01   1.8988945e-02
 -3.3683696e+00   6.2562756e-02
  4.3289265e-01   2.1797501e-02
  6.5376264e-01   3.3185177e-02
  6.2814841e+00   5.0387464e-02
 -1.9547212e+00   8.5290521e-03
 -9.6572655e-01   4.6900329e-03
  8.3664805e-01   2.3065314e-02
  1.5591012e-01   2.3031930e-02
 -7.5680227e+00   7.3463649e-02
  1.2095271e+00   1.9368198e-02
  3.7468579e-01   1.4782023e-02
  6.0720128e-01   6.3148804e-02
  8.2171428e-01   8.5952133e-02
 -6.5705042e+00   3.5442833e-02
 -5.6580740e-01   4.8512399e-02
 -2.1192122e+00   8.4474899e-02
  8.6398262e-01   7.3480822e-02
  6.9123349e+00   2.7326299e-02
  2.9952684e-01   4.9478441e-02
 -2.1125780e-01   1.2132040e-02
 -1.1168844e+00   4.0280253e-02
  1.1589401e+00   1.0481490e-01
  3.0860860e+00   1.7894611e-02
  1.0456496e+00   8.3929211e-02
  2.8371022e+00   1.0925748e-01
 -2.7422161e+00   7.4332799e-03
  2.4020094e-02   3.5476778e-03
  3.0866939e-01   4.2742092e-02
 -3.7731480e-02   3.2587700e-02
 -7.4284782e+00   6.1824217e-02
  5.5551195e-01   3.6892477e-02
 -1.6103228e+00   4.4306009e-03
  2.1848457e+00   1.1013848e-02
  5.5784106e-01   4.9117755e-02
 -7.9721856e-01   7.0099801e-02
  2.9984553e+00   5.2956846e-02
  2.0288529e+00   6.2672377e-02
 -2.8404209e-01   6.2208813e-02
 -1.6230729e-01   2.5890894e-02
 -2.8647580e+00   1.0182661e-01
  2.3031065e+00   6.6998936e-02
 -2.4277358e+00   1.6799184e-02
 -9.9955285e-01   5.9532031e-02
  1.9659896e+00   1.9294126e-02
  3.8107386e-01   4.5314480e-02
 -6.7000210e-01   2.4686698e-02
 -2.9916996e-01   5.4240897e-02
 -2.5094979e+00   9.1480076e-02
 -4.8152623e+00   5.4103859e-02
  2.9856694e+00   6.0649857e-02
  2.2127454e+00   3.2727510e-02
 -3.4982190e+00   5.1169168e-02
  6.3097519e-01   1.4025982e-02
 -4.1331496e+00   2.4894640e-02
 -1.0345560e+00   1.6952874e-02
 -2.0335703e-01   5.6096129e-02
  4.3627529e+00   6.0074393e-02
  3.1586230e+00   5.8249883e-02
  2.0463650e+00   2.8717360e-02
 -4.5947269e-01   3.6453914e-02
  1.3798520e-01   4.9399607e-02
  4.8369279e+00   8.1281513e-02
  5.6397157e+00   9.4145667e-03
 -5.2797055e-01   2.8275274e-02
 -3.7112963e+00   5.0748847e-02
  1.2895823e+00   2.6128922e-02
  9.4876158e-01   2.9709093e-02
  2.5922201e+00   3.4841884e-02
  4.8280792e+00   3.2769199e-02
  1.6255651e+00   3.7329298e-02
 -1.0329554e+00   4.3066807e-02
 -1.7483451e+00   2.1650530e-02
 -3.5980278e-01   1.5984850e-02
  2.7619619e+00   3.2242410e-02
 -3.9306933e-01   1.1869809e-01
  2.9842913e+00   7.1921148e-03
  2.2599266e+00   2.3399968e-01
  2.6160896e-01   1.5518099e-01
  1.5423827e+00   1.7459889e-01
  7.9955435e-01   3.7731525e-02
 -5.1352316e-01   9.1922935e-03
 -3.4971871e+00   4.1556083e-02
  2.4246886e+00   1.2344405e-01
  1.9176115e+00   3.6747877e-02
 -6.4568532e-01   5.0556671e-02
 -2.9018478e+00   1.5477891e-01
  1.1574924e+00   1.3982813e-01
  9.2338008e-01   1.0769648e-01
 -1.3728380e+00   3.6455508e-02
 -4.0244171e-01   1.4786875e-01
  2.2495108e+00   1.9418237e-01
 -5.8817065e-01   4.1925739e-02
  2.2710969e-01   7.8601882e-02
  2.7790296e-01   6.2219715e-03
  5.2564186e-01   9.7347975e-02
  3.1504383e+00   6.7190938e-02
  3.3176595e-01   1.2719487e-01
  1.1985506e+00   3.4690148e-01
  1.3244374e+00   2.7547178e-01
 -5.4320273e+00   6.2636426e-03
  7.8046007e+00   3.1916287e-02
  1.0562769e+00   5.5166773e-02
 -1.4392651e+00   8.9855053e-02
 -7.1883380e-01   2.7448226e-02
  4.8303884e-01   1.3903506e-01
 -2.4926131e+00   3.4008294e-02
 -6.6585416e-01   3.1701136e-01
  4.0463004e+00   3.3608638e-02
 -6.5919554e-01   1.2540509e-01
  4.2189252e-01   6.0070883e-02
  1.1543866e+00   1.0224780e-01
 -3.6461699e+00   1.7619543e-01
 -4.4328976e-01   9.5603049e-02
 -1.1673771e+00   1.2476389e-01
 -9.9889690e-01   4.9299568e-01
  3.0280435e-01   1.1266013e-01
 -1.8777847e-01   6.7645378e-02
  6.9851840e-01   2.7279893e-01
  4.8132434e+00   1.1422121e-02
 -9.2863280e-01   8.7244719e-02
  5.2945952e+00   1.8150914e-02
 -2.8551888e+00   1.1360606e-02
  2.1565504e-01   2.3690319e-01
 -1.6802726e-02   1.2375917e-02
  3.5259932e-01   5.3069907e-01
 -1.1326288e+00   1.8407343e-02
 -1.2726254e+00   1.5746705e-01
 -1.1328856e+00   2.0984395e-01
  3.1598110e+00   1.3666709e-01
 -2.0992166e-01   1.2083194e-01
  2.0351539e+00   1.4607541e-02
  2.6143357e-01   5.4256424e-02
 -1.2129555e+00   4.6640360e-01
 -7.6941788e-02   4.8441570e-02
 -8.0783319e-01   1.1183725e-01
  4.6190730e-01   4.3032784e-02
  3.2610641e+00   1.9101042e-02
 -4.7447249e-01   1.8533084e-01
 -1.3433955e+00   3.1961162e-02
 -2.7512417e+00   2.2755383e-02
 -3.4691772e+00   1.4267099e-01
  1.6139297e+00   1.5307376e-02
  1.7537776e-01   1.8718198e-01
 -2.7311008e+00   3.5722226e-02
  6.5633827e-01   1.6798336e-02
  5.8854985e-01   5.0214287e-02
  1.6055272e+00   2.3746274e-02
 -1.0886875e+00   2.6857257e-02
 -9.5394856e-01   2.7736260e-02
  2.8013900e-01   6.9572716e-03
 -8.5788929e-01   8.9169117e-03
 -8.6245638e-01   4.0885299e-03
 -2.9515061e+00   9.4831064e-03
  1.9609003e+00   2.2184182e-02
  9.4784546e-01   4.7567356e-02
 -2.4130113e+00   1.1804446e-02
 -2.1462295e+00   3.6123622e-02
  3.9093739e-01   2.7494278e-02
 -8.0565952e-02   3.2687206e-02
  3.8384857e+00   1.3429487e-01
 -2.3701577e+00   6.1615530e-02
 -1.0202430e+00   2.1641765e-02
 -3.7829864e-01   2.1560383e-03
  4.7848773e+00   5.3095471e-02
  6.9439845e+00   7.0081547e-02
  1.3084656e+00   4.2837914e-02
  5.5436295e-01   7.8408159e-03
  5.4015023e-01   3.2086376e-02
 -2.5266641e-01   7.3462747e-02
 -2.6577146e+00   4.7374506e-02
  1.3244845e+00   1.8402318e-02
  1.5991460e+00   2.9617472e-02
  1.2269444e+00   1.1632985e-01
  1.0485924e+01   1.4182968e-02
  5.4951853e-01   2.5629794e-02
 -3.0612555e+00   4.8989300e-03
  5.4870121e-02   5.5960631e-03
  1.8992146e+00   3.7049506e-02
 -2.5043540e+00   2.4557542e-02
 -1.8892423e+00   3.1851407e-02
 -1.1961365e+00   3.9767385e-02
 -1.0905735e+00   1.4574731e-02
  4.5338929e-01   1.9857798e-02
 -3.2852244e-01   7.5810596e-02
 -3.9218059e+00   1.5039933e-01
 -3.0731061e-01   2.4625517e-02
 -1.7930943e-01   2.3818545e-01
  9.5160484e-01   6.7067094e-02
  2.1035841e+00   2.5543062e-02
  1.4402871e+00   3.8954452e-02
 -4.6437626e+00   9.6593708e-02
  4.6252090e-01   1.1221857e-01
 -5.4315519e-01   1.4303944e-01
  2.1154919e+00   9.6839331e-02
  7.7883399e-01   5.2651584e-02
  5.7203603e-01   8.8053524e-02
  2.0807555e+00   7.1534693e-02
  3.1138453e-01   9.8002590e-03
 -2.2661717e+00   1.0258728e-01
 -1.8703359e+00   1.0555951e-01
  1.7234355e+00   6.1883952e-02
  2.8967376e+00   3.8733768e-01
 -6.1022520e+00   4.0108610e-02
  8.2016146e-01   2.9514290e-02
  3.8532573e-01   6.0556825e-02
 -9.6986401e-01   8.9674927e-02
 -4.5908105e-01   3.3142816e-02
 -1.2695143e-01   6.0714904e-02
  1.2993878e+00   2.5667958e-02
 -2.3494725e+00   7.5261474e-02
 -2.2372976e-01   1.8442467e-02
  2.4744971e+00   3.2724936e-02
  3.8326937e-01   5.2590825e-02
  1.1778978e+00   2.8138450e-01
 -1.9176184e+00   1.8234071e-01
 -2.3243876e+00   1.4311652e-02
 -1.0897221e-01   8.5977949e-02
  8.0898380e-01   3.0429857e-02
 -2.3254976e+00   8.1883185e-03
  3.0458977e+00   1.0317167e-02
  2.4356127e+00   6.5723038e-03
  2.6481280e-01   9.3963509e-03
 -4.3557930e+00   2.4925146e-02
 -9.1235721e-01   9.3168607e-03
 -2.2910533e+00   1.0566265e-02
  5.4734653e-01   7.0205862e-03
  8.7381530e-01   1.0569829e-02
 -2.1246853e+00   9.9163786e-02
 -1.1135725e+00   3.4505788e-02
  2.2311886e-01   5.3218342e-03
 -1.2432427e+00   2.4683885e-03
  9.2977387e-01   1.3980775e-02
  5.5295148e+00   1.9755062e-02
 -3.7269384e-01   8.4264763e-03
 -2.3440094e+00   4.0744036e-03
  9.9767160e-01   5.9663979e-03
 -3.8834884e+00   1.9758850e-02
  1.3887571e+00   3.2833874e-02
  2.6856215e+00   3.6281338e-03
  3.9609997e+00   3.6575275e-03
 -3.3064005e+00   1.3192941e-02
 -4.8454075e+00   7.6957576e-02
 -3.9412420e+00   2.4445126e-02
 -2.4202621e+00   7.3355972e-03
  4.4541347e-01   1.0041545e-02
 -7.9860479e-01   7.5377743e-03
  9.5741713e-01   2.0945771e-02
  2.8267556e-01   3.4145834e-03
 -7.9366505e-01   4.2038588e-03
  2.5503678e+00   2.5518535e-02
 -3.2120769e+00   2.7835976e-02
 -2.0118535e+00   2.0200970e-02
  8.2975678e-02   2.8364230e-02
 -9.8980480e-01   1.1701636e-02
  2.1863871e+00   1.2073962e-01
  2.3776610e+00   1.5152360e-02
 -7.8173792e-01   3.5478182e-02
 -1.1317153e+00   1.2690526e-02
 -1.4166272e-01   3.9754741e-02
  4.7303276e+00   5.2353542e-02
  1.5630416e+00   3.4402177e-02
  3.9880488e+00   4.2022165e-02
  2.7445188e+00   3.0857645e-02
 -3.0612841e+00   1.1572347e-01
  9.1179603e-01   1.0420599e-01
  1.1543615e+00   8.6024635e-02
 -2.0597749e+00   2.4553373e-02
 -7.6625681e-01   3.7485443e-02
  1.2725583e+00   9.0534031e-02
 -1.2681975e+00   1.1807337e-01
  8.3551568e-01   1.0729753e-02
  9.9805695e-01   1.5126609e-02
 -3.1948874e+00   5.1156055e-02
 -1.2555456e-01   1.0402160e-01
 -3.6946447e+00   5.6524046e-02
 -3.5210054e-02   6.7009218e-02
  9.0963972e-01   8.4165290e-02
 -1.0967243e+00   1.9546038e-01
 -3.9866056e+00   2.9522315e-02
  1.0757267e+00   9.1487497e-02
 -2.0986807e+00   5.1951442e-02
 -6.2817353e-01   3.6574163e-02
  1.1992177e+00   8.6487971e-02
 -6.0966673e+00   2.3170356e-02
  3.0393064e+00   1.3308078e-02
  1.8357133e+00   7.6253321e-03
 -9.8433602e-01   2.3657711e-02
  4.3115849e+00   1.1470158e-02
 -7.4617043e+00   5.7528093e-02
  2.2411397e+00   8.4365904e-03
  6.2421942e-01   2.4565121e-03
  1.4597290e+00   7.3988345e-03
  2.0200384e+00   1.6211835e-03
  1.1403145e+00   1.9199090e-03
  2.4673760e+00   4.7469772e-03
 -7.9442519e-01   2.1437153e-03
 -1.0965956e+00   2.3461522e-03
  5.8788913e-01   3.2168361e-03
  1.0101565e+00   3.0504055e-03
  1.4099399e+00   1.8790215e-02
 -1.8767232e+00   4.3974691e-03
  1.6217844e-01   3.0483401e-03
 -2.5786586e+00   2.0757851e-03
 -1.0632348e+00   6.5145027e-03
  6.6275678e+00   4.9183904e-03
  1.2777185e+00   1.8559329e-03
  8.5158032e-01   3.5237591e-03
 -2.6991093e+00   8.9102089e-03
  1.5569891e+00   8.1678480e-03
  2.1759416e-01   9.1112815e-03
 -1.9806221e+00   3.5779581e-03
  3.9192028e+00   3.0416769e-03
  1.5037732e+00   3.9387411e-03
  3.1749723e+00   6.9530462e-03
 -2.3880248e+00   8.6663775e-03
  2.1381922e+00   3.5272925e-03
  6.9234657e+00   6.7147734e-03
 -1.2752177e+00   3.5930560e-03
  4.8029432e-01   4.9595712e-03
 -4.4594798e-02   3.2227039e-03
 -7.7706265e-01   3.9187665e-03
 -1.1103207e+00   3.2575207e-03
 -1.8753324e+00   9.3640620e-03
  2.6470742e-01   4.3217330e-03
 -2.6793528e+00   1.5414833e-03
 -1.7221338e+00   5.9922775e-03
  1.6834141e-01   2.0838520e-02
  5.3981066e-01   3.5233933e-01
 -1.8135296e+00   3.8784879e-01
  1.2863595e+00   4.0042493e-02
  2.8777245e-01   1.6929131e-02
 -2.8338000e-01   2.2744074e-02
 -2.8966343e-01   2.2700017e-02
 -1.2556403e+00   4.8211437e-02
  7.5584459e-01   3.7060735e-01
 -6.4103627e-01   6.7397676e-02
  4.9180642e-01   3.9652702e-01
 -4.0074977e-01   5.2026147e-01
  7.1166182e-01   1.4026238e-01
  1.5994048e+00   1.7042537e-01
  5.7627553e-01   2.0883650e-02
  2.5434365e+00   4.0927663e-02
 -2.2369690e+00   8.4677368e-02
 -4.0698643e+00   3.7630089e-02
  1.0432262e+00   1.8273409e-01
 -1.2640845e+00   6.6765212e-02
 -6.8900192e-01   5.3971987e-02
  2.6657814e-01   7.0040755e-02
  1.6978216e+00   2.5264410e-02
  2.4535551e+00   4.2130936e-02
  2.3127592e+00   8.5058110e-03
  6.0802180e-01   2.7075319e-02
  2.6027784e-03   2.2197759e-01
 -5.4041916e-01   2.7773547e-01
  6.5037447e-01   1.6146967e-01
  7.0343561e-02   1.4377457e-02
  2.0912557e+00   4.5519888e-01
 -1.0000715e+00   1.3574167e-02
  2.4750979e+00   7.7344336e-02
 -7.5312549e-01   6.7517601e-02
  1.0634600e+00   3.1195703e-01
 -2.6087348e+00   2.5586280e-01
  7.0796430e-01   8.1553496e-02
 -7.3370904e-01   7.0307538e-02
  4.7633357e+00   2.5427816e-02
  2.7450886e-01   3.0293008e-02
 -1.3652680e+00   8.6892108e-03
 -1.4489527e+00   1.2791821e-01
  1.5419112e+00   1.5717497e-01
  1.4487828e-01   3.2210055e-01
 -5.0478220e-01   4.1503015e-01
  7.8328615e-01   2.5922826e-01
 -9.2156404e-01   5.8774225e-02
 -1.3446380e+00   5.4994017e-02
 -2.6819010e+00   5.3253628e-02
 -2.7352479e-01   3.4045309e-01
  7.7126187e-01   4.9390256e-01
  2.3534734e+00   3.8911232e-01
 -2.6704705e-01   2.3072615e-01
  1.4294922e+00   6.1610538e-01
  4.9113578e-01   4.7796480e-02
  1.8088450e+00   8.0288865e-02
  2.5957377e+00   2.0452442e-02
 -1.1962242e+00   2.9247573e-02
 -3.2911375e+00   7.5718507e-02
 -2.9561954e+00   1.0956375e-01
  4.5493789e+00   1.2851045e-01
  5.0243324e-01   2.2292607e-01
  6.8349761e-01   1.8649262e-01
  2.3331209e-01   1.0494300e-01
 -4.0593624e+00   6.5173775e-02
 -8.7789828e-01   1.2356151e-01
 -8.6645740e-01   1.3052948e-01
 -2.5087655e-02   2.8481501e-01
  8.5657455e-02   2.3228382e-01
  7.7037972e-01   2.6294702e-01
  1.5354365e+00   5.2277509e-02
 -1.1496719e+00   6.1047785e-02
 -3.3861043e+00   3.2463029e-02
  3.1122222e+00   3.8586054e-02
 -1.6005369e-01   1.6556287e-02
 -4.7992907e+00   3.8185939e-02
  4.8079526e-01   3.6713261e-02
 -3.9505472e+00   8.6810656e-02
 -1.6514858e+00   5.2787926e-02
  7.1698970e-01   2.1108456e-02
 -3.2071941e+00   5.4609418e-02
 -1.7262831e+00   1.1786281e-02
  6.9286942e-02   2.9023986e-02
  1.3097562e+00   1.7699698e-02
 -1.3099042e+00   2.9200280e-02
 -4.9538550e+00   9.6842032e-03
  3.7457817e+00   7.6774672e-02
  4.5199317e-01   9.1761485e-02
 -2.8412647e+00   4.4764630e-02
  9.9024487e-01   2.4945151e-02
 -1.8762693e+00   6.6614769e-02
 -3.5066421e+00   5.4201465e-02
 -1.0502876e+00   3.4018151e-02
 -8.0801368e-01   9.1277687e-03
  2.1325691e+00   5.7479892e-02
  3.7657684e-01   1.2338435e-01
 -7.2504717e-01   9.5547602e-02
  1.6352758e+00   9.2366651e-02
 -4.0873575e-01   1.2190823e-01
 -4.3712184e-01   4.4884313e-02
 -7.6065964e-01   2.2680836e-02
 -1.8708955e-01   1.5380723e-02
  3.6986227e+00   3.3484682e-02
  4.9636960e-02   4.6418078e-02
 -3.9815831e+00   1.3447307e-01
  7.8840733e-01   1.4047743e-02
 -6.2036008e-01   5.1202387e-02
 -3.7728998e-01   3.8411632e-02
 -1.8843411e+00   8.7731769e-03
  1.5814011e+00   6.0026839e-02
 -4.6700323e-01   9.4157504e-03
  4.8964715e+00   2.4579611e-02
 -1.8703905e+00   4.7923625e-02
 -1.1610186e+00   7.7100880e-02
  4.7219756e-01   5.6851055e-02
  1.4139447e+00   2.6098372e-02
 -1.8521994e-01   1.5834052e-02
 -7.3798341e-01   2.0122290e-01
 -4.1817102e-01   1.9438727e-02
 -1.1758384e+00   2.2261957e-02
  3.9332862e+00   1.3383770e-02
  6.2292808e-01   1.8690757e-01
 -3.8025165e-01   2.3584902e-02
  1.8011869e+00   2.1748280e-02
 -1.7460061e+00   6.8662271e-02
 -3.2256606e+00   4.7011487e-02
  2.4943917e+00   7.1058869e-02
  1.2406563e+00   2.5912514e-01
  1.9930466e-01   5.9200018e-03
  4.0588503e+00   4.2148963e-02
  2.9690836e-02   9.5551595e-02
 -7.5865048e-01   2.2042255e-01
  2.4188478e+00   1.4388297e-01
 -2.4322388e+00   7.7640608e-02
 -1.6907585e-01   1.4062899e-01
 -2.3583074e+00   3.4502886e-02
 -5.5869669e-01   3.7229579e-02
 -1.4150753e+00   2.3715915e-02
  3.6810139e-01   3.1202018e-02
  1.5463078e+00   9.5843464e-02
  5.5969489e-01   1.4201804e-01
 -7.1410284e+00   3.0903822e-02
  1.5455704e+00   6.0951900e-02
  8.3401018e-01   5.6062140e-02
 -5.9660214e-01   1.7408356e-01
  1.7705219e+00   1.5664818e-02
 -2.1040775e-02   3.3449686e-01
 -1.6356252e-02   2.9296545e-02
  1.1610729e+00   1.7305468e-01
  2.1620890e-01   1.1844225e-01
  4.2514005e+00   4.8913721e-02
 -5.9097457e-01   3.2491288e-01
  6.8769848e-01   2.7657220e-01
  1.9090135e-01   2.7950308e-01
 -1.2539651e+00   5.9905533e-02
  2.8111379e+00   1.6044065e-02
  2.1888819e+00   6.3051395e-02
 -3.3715816e+00   3.1239516e-01
  6.8208104e-01   3.5659572e-01
  3.1860620e-01   1.7508157e-01
 -2.1349111e+00   2.1945719e-01
 -8.2391196e-01   2.2959101e-01
 -6.6545808e-01   3.7079766e-01
 -3.1123710e+00   3.4937318e-02
  2.8311334e+00   6.3651457e-02
 -9.9800527e-02   3.1981748e-01
  2.1230481e+00   2.5209928e-02
 -1.2394725e+00   1.7812814e-01
 -1.6832393e+00   1.0434286e-02
 -2.6408391e+00   6.2423475e-02
  5.1285758e+00   2.7191229e-02
 -1.2723175e+00   5.0167233e-02
 -1.4180385e+00   2.4727836e-02
  1.9013429e+00   1.2071151e-01
  1.5125263e+00   2.1297807e-02
 -4.9817729e+00   1.0674567e-02
 -2.0732527e+00   2.0404501e-02
 -3.9827028e-01   2.7711269e-01
  1.9576384e+00   1.2820707e-01
 -1.1397036e+00   1.1648518e-01
  3.2785001e+00   1.6624495e-02
 -6.2724274e-01   1.0739809e-01
  3.6280242e-01   1.6925523e-02
  8.7539053e-01   1.0182300e-02
  9.8897523e-01   4.1890584e-02
 -6.9408804e-01   4.2425305e-02
 -1.6285412e+00   4.4768676e-02
  4.7906277e-01   9.9014059e-02
 -2.6314527e-01   5.8758333e-02
  2.8160639e+00   2.5568461e-02
 -1.7889259e+00   3.0800954e-01
  1.1074151e+00   9.4984889e-02
  6.4715939e+00   8.0519788e-02
  5.2729380e-01   2.8388986e-01
  3.8874424e-01   1.4474578e-01
 -1.9898948e-01   4.3212932e-02
  1.3535753e+00   1.3421535e-02
 -1.5760211e+00   1.2007011e-01
  4.5073912e-01   1.6904847e-01
  2.1386774e+00   1.2480056e-01
  9.7577298e-01   2.6927229e-02
  3.3148702e-02   8.8625103e-02
  1.5840172e+00   5.5763490e-02
  5.0508529e-01   2.0067774e-02
  2.1353903e+00   1.6913071e-01
 -2.2402411e+00   8.5454628e-02
 -3.2442337e-01   1.2514117e-01
 -2.3730216e+00   6.4006701e-02
  5.1414365e-01   1.5122761e-01
  5.7625809e+00   3.2796085e-02
  5.2409248e+00   4.6734534e-02
  3.8148203e+00   5.7943739e-02
 -3.1433499e+00   1.1183633e-02
  2.1108198e-01   1.1166769e-01
 -1.5704709e+00   1.3681658e-02
 -2.3691657e-01   1.5735009e-01
  4.2991657e+00   2.5634481e-02