This job can be monitored from: https://scruffy.c3se.chalmers.se/d/alvis-job/alvis-job?var-jobid=261636&from=1651041983000

***************************************************************
*                 Welcome to use GPUMD                        *
*    (Graphics Processing Units Molecular Dynamics)           *
*                     Version 3.3                             *
*              This is the nep executable                     *
* Author:                                                     *
*     Zheyong Fan <brucenju@gmail.com>                        *
***************************************************************


---------------------------------------------------------------
GPU information:
---------------------------------------------------------------

Device id:               0
Device name:             NVIDIA A100-SXM4-40GB
Compute capability:      8.0
Amount of global memory: 39.4086 GB
Number of SMs:           108

---------------------------------------------------------------
Run simulation for '.'.
---------------------------------------------------------------


---------------------------------------------------------------
Started reading nep.in.
---------------------------------------------------------------

Input or default parameters:
    (input)   use NEP version 3.
    (input)   number of atom types = 2.
        (default) type 0 (C with Z = 6) has force weight of 1.
        (default) type 1 (H with Z = 1) has force weight of 1.
    (default) will not add the ZBL potential.
    (input)   radial cutoff = 4 A.
    (input)   angular cutoff = 4 A.
    (input)   n_max_radial = 6.
    (input)   n_max_angular = 6.
    (default) basis_size_radial = 8.
    (default) basis_size_angular = 8.
    (input)   l_max_3body = 4.
    (input)   l_max_4body = 0.
    (input)   l_max_5body = 0.
    (input)   number of neurons = 50.
    (input)   lambda_1 = 0.02.
    (input)   lambda_2 = 0.02.
    (input)   lambda_e = 1.
    (input)   lambda_f = 1.
    (default) lambda_v = 0.1.
    (default) force_delta = 0.
    (input)   batch size = 100000000.
    (input)   population size = 50.
    (input)   maximum number of generations = 100000.
Some calculated parameters:
    number of radial descriptor components = 7.
    number of angualr descriptor components = 28.
    total number of  descriptor components = 35.
    NN architecture = 35-50-1.
    number of NN parameters to be optimized = 1851.
    number of descriptor parameters to be optimized = 504.
    total number of parameters to be optimized = 2355.

---------------------------------------------------------------
Finished reading nep.in.
---------------------------------------------------------------


---------------------------------------------------------------
Started reading train.in.
---------------------------------------------------------------

Number of configurations = 140.
Number of batches = 1
Hello, I changed the batch_size from 100000000 to 140.

Batch 0:
Number of configurations = 140.
Total number of atoms = 4480.
Number of atoms in the largest configuration = 32.
Number of configurations having virial = 0.
Radial descriptor with a cutoff of 4 A:
    Minimum number of neighbors for one atom = 6.
    Maximum number of neighbors for one atom = 23.
Angular descriptor with a cutoff of 4 A:
    Minimum number of neighbors for one atom = 6.
    Maximum number of neighbors for one atom = 23.

---------------------------------------------------------------
Started reading test.in.
---------------------------------------------------------------

Number of configurations = 60.
Total number of atoms = 1920.
Number of atoms in the largest configuration = 32.
Number of configurations having virial = 0.
Radial descriptor with a cutoff of 4 A:
    Minimum number of neighbors for one atom = 7.
    Maximum number of neighbors for one atom = 23.
Angular descriptor with a cutoff of 4 A:
    Minimum number of neighbors for one atom = 7.
    Maximum number of neighbors for one atom = 23.

---------------------------------------------------------------
Time used for initialization = 0.276200 s.
---------------------------------------------------------------


---------------------------------------------------------------
Started training.
---------------------------------------------------------------

Step    Total-Loss L1Reg-Loss L2Reg-Loss RMSE-E-Train RMSE-F-Train RMSE-V-Train RMSE-E-Test  RMSE-F-Test  RMSE-V-Test  
100     0.96109    0.00692    0.00833    0.02504      0.92081      0.00000      0.03098      0.94491      0.00000      
200     0.89849    0.00787    0.00959    0.02302      0.85801      0.00000      0.03012      0.87973      0.00000      
300     0.88345    0.00861    0.01057    0.02441      0.83987      0.00000      0.03133      0.86800      0.00000      
400     0.84095    0.00942    0.01165    0.02189      0.79799      0.00000      0.03013      0.83091      0.00000      
500     0.81292    0.01010    0.01251    0.02117      0.76914      0.00000      0.02909      0.80447      0.00000      
600     0.79145    0.01075    0.01330    0.02330      0.74410      0.00000      0.02994      0.77183      0.00000      
700     0.78090    0.01132    0.01415    0.02341      0.73202      0.00000      0.02791      0.76563      0.00000      
800     0.74921    0.01195    0.01488    0.02056      0.70182      0.00000      0.02887      0.74455      0.00000      
900     0.74484    0.01245    0.01546    0.01970      0.69722      0.00000      0.02528      0.73730      0.00000      
1000    0.77321    0.01288    0.01610    0.02130      0.72292      0.00000      0.02767      0.75933      0.00000      
1100    0.76611    0.01350    0.01686    0.02303      0.71271      0.00000      0.02828      0.75142      0.00000      
1200    0.73715    0.01407    0.01759    0.02043      0.68506      0.00000      0.02631      0.71556      0.00000      
1300    0.74700    0.01446    0.01812    0.02339      0.69103      0.00000      0.02675      0.72935      0.00000      
1400    0.71047    0.01491    0.01855    0.02177      0.65523      0.00000      0.02658      0.69185      0.00000      
1500    0.70700    0.01522    0.01902    0.02184      0.65092      0.00000      0.02794      0.70226      0.00000      
1600    0.70183    0.01556    0.01945    0.02062      0.64620      0.00000      0.02750      0.69444      0.00000      
1700    0.71797    0.01593    0.01994    0.02114      0.66096      0.00000      0.02843      0.70115      0.00000      
1800    0.69144    0.01604    0.02016    0.01887      0.63638      0.00000      0.02521      0.68680      0.00000      
1900    0.68754    0.01642    0.02074    0.01950      0.63088      0.00000      0.02398      0.67416      0.00000      
2000    0.68108    0.01682    0.02133    0.01944      0.62349      0.00000      0.02572      0.66814      0.00000      
2100    0.67946    0.01715    0.02178    0.01835      0.62218      0.00000      0.02407      0.67558      0.00000      
2200    0.67449    0.01749    0.02226    0.01971      0.61503      0.00000      0.02366      0.65837      0.00000      
2300    0.67621    0.01786    0.02267    0.01991      0.61578      0.00000      0.02740      0.66125      0.00000      
2400    0.67078    0.01824    0.02308    0.02035      0.60912      0.00000      0.02712      0.64386      0.00000      
2500    0.64212    0.01847    0.02338    0.01922      0.58105      0.00000      0.02562      0.62247      0.00000      
2600    0.65740    0.01885    0.02376    0.01813      0.59666      0.00000      0.02613      0.63903      0.00000      
2700    0.65028    0.01911    0.02421    0.01947      0.58749      0.00000      0.02649      0.63539      0.00000      
2800    0.64752    0.01941    0.02464    0.02080      0.58267      0.00000      0.02692      0.62554      0.00000      
2900    0.64570    0.01961    0.02501    0.01949      0.58160      0.00000      0.02606      0.62292      0.00000      
3000    0.63195    0.01993    0.02541    0.01942      0.56719      0.00000      0.02618      0.61539      0.00000      
3100    0.64966    0.02011    0.02566    0.01834      0.58555      0.00000      0.02454      0.62643      0.00000      
3200    0.64118    0.02039    0.02602    0.01685      0.57792      0.00000      0.02359      0.61494      0.00000      
3300    0.64382    0.02070    0.02649    0.01837      0.57826      0.00000      0.02535      0.62150      0.00000      
3400    0.63235    0.02098    0.02684    0.01870      0.56583      0.00000      0.02428      0.59514      0.00000      
3500    0.62820    0.02131    0.02725    0.01981      0.55983      0.00000      0.02647      0.60375      0.00000      
3600    0.61776    0.02152    0.02736    0.01796      0.55092      0.00000      0.02463      0.58756      0.00000      
3700    0.61710    0.02176    0.02775    0.01850      0.54909      0.00000      0.02600      0.58894      0.00000      
3800    0.61072    0.02217    0.02832    0.01709      0.54315      0.00000      0.02544      0.58175      0.00000      
3900    0.61157    0.02237    0.02865    0.01770      0.54285      0.00000      0.02547      0.58738      0.00000      
4000    0.61591    0.02261    0.02896    0.01743      0.54691      0.00000      0.02286      0.58865      0.00000      
4100    0.60510    0.02292    0.02949    0.01870      0.53398      0.00000      0.02566      0.57442      0.00000      
4200    0.60343    0.02336    0.03000    0.01630      0.53377      0.00000      0.02346      0.57808      0.00000      
4300    0.60858    0.02360    0.03039    0.01689      0.53769      0.00000      0.02384      0.57887      0.00000      
4400    0.61069    0.02388    0.03074    0.01753      0.53854      0.00000      0.02438      0.57939      0.00000      
4500    0.61021    0.02398    0.03105    0.01737      0.53779      0.00000      0.02562      0.57554      0.00000      
4600    0.60209    0.02425    0.03145    0.01685      0.52954      0.00000      0.02394      0.56753      0.00000      
4700    0.60209    0.02437    0.03170    0.01531      0.53071      0.00000      0.02252      0.56984      0.00000      
4800    0.59708    0.02439    0.03179    0.01592      0.52498      0.00000      0.02302      0.56592      0.00000      
4900    0.59824    0.02435    0.03186    0.01624      0.52578      0.00000      0.02339      0.56599      0.00000      
5000    0.59616    0.02441    0.03207    0.01620      0.52348      0.00000      0.02355      0.56350      0.00000      
5100    0.59462    0.02473    0.03233    0.01681      0.52075      0.00000      0.02413      0.57065      0.00000      
5200    0.59072    0.02509    0.03280    0.01603      0.51679      0.00000      0.02350      0.55691      0.00000      
5300    0.59794    0.02514    0.03299    0.01634      0.52346      0.00000      0.02266      0.56287      0.00000      
5400    0.59318    0.02550    0.03329    0.01644      0.51795      0.00000      0.02306      0.55714      0.00000      
5500    0.59293    0.02575    0.03364    0.01595      0.51759      0.00000      0.02234      0.56196      0.00000      
5600    0.59337    0.02598    0.03390    0.01531      0.51818      0.00000      0.02117      0.56912      0.00000      
5700    0.58851    0.02623    0.03418    0.01493      0.51317      0.00000      0.02132      0.56620      0.00000      
5800    0.59152    0.02643    0.03451    0.01526      0.51533      0.00000      0.02111      0.56132      0.00000      
5900    0.58625    0.02659    0.03473    0.01526      0.50966      0.00000      0.02197      0.55590      0.00000      
6000    0.58771    0.02684    0.03499    0.01545      0.51044      0.00000      0.02268      0.55475      0.00000      
6100    0.58533    0.02708    0.03539    0.01473      0.50812      0.00000      0.02114      0.55686      0.00000      
6200    0.58151    0.02712    0.03564    0.01519      0.50356      0.00000      0.02066      0.54956      0.00000      
6300    0.57786    0.02724    0.03579    0.01523      0.49959      0.00000      0.02197      0.54428      0.00000      
6400    0.57998    0.02726    0.03590    0.01512      0.50170      0.00000      0.02152      0.55213      0.00000      
6500    0.58172    0.02750    0.03631    0.01560      0.50231      0.00000      0.02294      0.55152      0.00000      
6600    0.57861    0.02751    0.03629    0.01551      0.49930      0.00000      0.02129      0.54927      0.00000      
6700    0.57776    0.02776    0.03653    0.01578      0.49768      0.00000      0.02190      0.54413      0.00000      
6800    0.57713    0.02772    0.03659    0.01510      0.49772      0.00000      0.02223      0.54161      0.00000      
6900    0.57664    0.02786    0.03671    0.01490      0.49716      0.00000      0.02108      0.54616      0.00000      
7000    0.57574    0.02812    0.03711    0.01559      0.49491      0.00000      0.02237      0.54082      0.00000      
7100    0.57412    0.02821    0.03738    0.01462      0.49391      0.00000      0.02012      0.54125      0.00000      
7200    0.57309    0.02829    0.03742    0.01475      0.49263      0.00000      0.02187      0.53871      0.00000      
7300    0.57060    0.02833    0.03751    0.01450      0.49027      0.00000      0.02008      0.53555      0.00000      
7400    0.57456    0.02830    0.03749    0.01476      0.49400      0.00000      0.02011      0.54468      0.00000      
7500    0.57009    0.02822    0.03729    0.01509      0.48949      0.00000      0.02064      0.53583      0.00000      
7600    0.56677    0.02834    0.03739    0.01465      0.48638      0.00000      0.02055      0.53087      0.00000      
7700    0.56639    0.02860    0.03770    0.01436      0.48572      0.00000      0.02163      0.53759      0.00000      
7800    0.56484    0.02870    0.03792    0.01408      0.48414      0.00000      0.02069      0.53746      0.00000      
7900    0.56187    0.02870    0.03787    0.01415      0.48115      0.00000      0.02032      0.52967      0.00000      
8000    0.55960    0.02865    0.03790    0.01431      0.47874      0.00000      0.02091      0.53276      0.00000      
8100    0.56141    0.02887    0.03830    0.01421      0.48003      0.00000      0.02125      0.53146      0.00000      
8200    0.55822    0.02888    0.03826    0.01437      0.47671      0.00000      0.02017      0.52640      0.00000      
8300    0.55443    0.02904    0.03853    0.01387      0.47300      0.00000      0.02000      0.52335      0.00000      
8400    0.55768    0.02905    0.03855    0.01406      0.47603      0.00000      0.02074      0.52640      0.00000      
8500    0.55724    0.02907    0.03852    0.01414      0.47551      0.00000      0.02075      0.52250      0.00000      
8600    0.55637    0.02935    0.03891    0.01401      0.47410      0.00000      0.02085      0.52976      0.00000      
8700    0.55403    0.02944    0.03902    0.01389      0.47168      0.00000      0.02056      0.52317      0.00000      
8800    0.55564    0.02950    0.03910    0.01381      0.47323      0.00000      0.02097      0.52893      0.00000      
8900    0.55248    0.02942    0.03889    0.01386      0.47031      0.00000      0.02065      0.52832      0.00000      
9000    0.55205    0.02942    0.03889    0.01455      0.46919      0.00000      0.02087      0.52362      0.00000      
9100    0.55094    0.02944    0.03884    0.01405      0.46861      0.00000      0.02104      0.52490      0.00000      
9200    0.54899    0.02943    0.03905    0.01415      0.46637      0.00000      0.02056      0.52382      0.00000      
9300    0.54871    0.02948    0.03924    0.01425      0.46575      0.00000      0.02134      0.52529      0.00000      
9400    0.54608    0.02959    0.03941    0.01384      0.46324      0.00000      0.02063      0.52090      0.00000      
9500    0.54759    0.02968    0.03945    0.01343      0.46503      0.00000      0.01996      0.52171      0.00000      
9600    0.54553    0.02983    0.03968    0.01397      0.46205      0.00000      0.02086      0.51733      0.00000      
9700    0.54386    0.02988    0.03980    0.01409      0.46009      0.00000      0.02101      0.51688      0.00000      
9800    0.54425    0.02998    0.03991    0.01410      0.46025      0.00000      0.01955      0.51241      0.00000      
9900    0.54413    0.03001    0.04002    0.01412      0.45998      0.00000      0.02046      0.50992      0.00000      
10000   0.54324    0.03005    0.03998    0.01436      0.45886      0.00000      0.02078      0.51146      0.00000      
10100   0.53979    0.03007    0.04006    0.01437      0.45530      0.00000      0.02079      0.50730      0.00000      
10200   0.53950    0.03010    0.03992    0.01400      0.45548      0.00000      0.02070      0.50798      0.00000      
10300   0.54193    0.03006    0.03985    0.01423      0.45779      0.00000      0.02059      0.51070      0.00000      
10400   0.53909    0.03008    0.04004    0.01389      0.45509      0.00000      0.02049      0.50863      0.00000      
10500   0.53879    0.03021    0.04021    0.01376      0.45461      0.00000      0.02017      0.51044      0.00000      
10600   0.53797    0.03033    0.04050    0.01360      0.45354      0.00000      0.01933      0.50851      0.00000      
10700   0.53787    0.03031    0.04042    0.01331      0.45383      0.00000      0.01938      0.51010      0.00000      
10800   0.53676    0.03018    0.04031    0.01327      0.45301      0.00000      0.01878      0.50877      0.00000      
10900   0.53760    0.03037    0.04046    0.01391      0.45285      0.00000      0.01973      0.50719      0.00000      
11000   0.53691    0.03054    0.04057    0.01369      0.45212      0.00000      0.01902      0.51143      0.00000      
11100   0.53429    0.03066    0.04060    0.01377      0.44926      0.00000      0.01952      0.50462      0.00000      
11200   0.53438    0.03076    0.04074    0.01360      0.44928      0.00000      0.01910      0.50633      0.00000      
11300   0.53277    0.03056    0.04061    0.01352      0.44808      0.00000      0.01929      0.50562      0.00000      
11400   0.53265    0.03036    0.04030    0.01357      0.44841      0.00000      0.01943      0.50608      0.00000      
11500   0.53200    0.03051    0.04048    0.01352      0.44748      0.00000      0.01945      0.50686      0.00000      
11600   0.53198    0.03045    0.04038    0.01392      0.44724      0.00000      0.01981      0.50492      0.00000      
11700   0.53193    0.03055    0.04046    0.01375      0.44717      0.00000      0.01960      0.50474      0.00000      
11800   0.52917    0.03077    0.04064    0.01405      0.44371      0.00000      0.01992      0.50276      0.00000      
11900   0.53089    0.03081    0.04063    0.01362      0.44583      0.00000      0.01911      0.50612      0.00000      
12000   0.52975    0.03093    0.04089    0.01324      0.44469      0.00000      0.01858      0.50517      0.00000      
12100   0.52791    0.03090    0.04090    0.01333      0.44278      0.00000      0.01940      0.50536      0.00000      
12200   0.52814    0.03079    0.04093    0.01378      0.44263      0.00000      0.01941      0.50566      0.00000      
12300   0.52776    0.03096    0.04121    0.01340      0.44219      0.00000      0.01920      0.50205      0.00000      
12400   0.52802    0.03085    0.04113    0.01315      0.44289      0.00000      0.01942      0.50469      0.00000      
12500   0.52546    0.03068    0.04108    0.01334      0.44035      0.00000      0.01891      0.49867      0.00000      
12600   0.52492    0.03063    0.04104    0.01363      0.43962      0.00000      0.01947      0.50191      0.00000      
12700   0.52454    0.03083    0.04119    0.01344      0.43908      0.00000      0.01956      0.49894      0.00000      
12800   0.52467    0.03080    0.04117    0.01339      0.43931      0.00000      0.01946      0.50632      0.00000      
12900   0.52364    0.03086    0.04128    0.01330      0.43820      0.00000      0.01863      0.50290      0.00000      
13000   0.52229    0.03093    0.04126    0.01350      0.43660      0.00000      0.01855      0.49803      0.00000      
13100   0.52163    0.03092    0.04132    0.01326      0.43613      0.00000      0.01900      0.50110      0.00000      
13200   0.52027    0.03103    0.04155    0.01345      0.43424      0.00000      0.01884      0.49931      0.00000      
13300   0.52072    0.03104    0.04165    0.01361      0.43441      0.00000      0.01915      0.49781      0.00000      
13400   0.51939    0.03095    0.04139    0.01354      0.43351      0.00000      0.01915      0.49821      0.00000      
13500   0.51878    0.03104    0.04150    0.01326      0.43298      0.00000      0.01864      0.49692      0.00000      
13600   0.51835    0.03118    0.04168    0.01326      0.43222      0.00000      0.01953      0.49973      0.00000      
13700   0.51755    0.03111    0.04147    0.01330      0.43168      0.00000      0.01960      0.49888      0.00000      
13800   0.51674    0.03097    0.04140    0.01329      0.43108      0.00000      0.01934      0.49405      0.00000      
13900   0.51688    0.03086    0.04124    0.01339      0.43139      0.00000      0.01908      0.49790      0.00000      
14000   0.51702    0.03099    0.04151    0.01321      0.43131      0.00000      0.01770      0.49527      0.00000      
14100   0.51635    0.03110    0.04174    0.01299      0.43052      0.00000      0.01917      0.49898      0.00000      
14200   0.51639    0.03115    0.04179    0.01336      0.43010      0.00000      0.01866      0.49783      0.00000      
14300   0.51575    0.03109    0.04151    0.01336      0.42979      0.00000      0.01947      0.49561      0.00000      
14400   0.51329    0.03102    0.04146    0.01321      0.42760      0.00000      0.01864      0.49527      0.00000      
14500   0.51408    0.03100    0.04157    0.01351      0.42799      0.00000      0.01944      0.49200      0.00000      
14600   0.51315    0.03112    0.04179    0.01328      0.42696      0.00000      0.01871      0.49185      0.00000      
14700   0.51133    0.03097    0.04157    0.01325      0.42554      0.00000      0.01844      0.49170      0.00000      
14800   0.51052    0.03085    0.04134    0.01324      0.42510      0.00000      0.01882      0.49348      0.00000      
14900   0.51119    0.03105    0.04150    0.01315      0.42549      0.00000      0.01852      0.49268      0.00000      
15000   0.51037    0.03102    0.04148    0.01304      0.42484      0.00000      0.01869      0.49265      0.00000      
15100   0.50904    0.03103    0.04150    0.01291      0.42359      0.00000      0.01847      0.48991      0.00000      
15200   0.50983    0.03118    0.04178    0.01297      0.42389      0.00000      0.01803      0.49276      0.00000      
15300   0.50927    0.03119    0.04168    0.01280      0.42360      0.00000      0.01865      0.49423      0.00000      
15400   0.50756    0.03122    0.04162    0.01316      0.42156      0.00000      0.01906      0.49008      0.00000      
15500   0.50815    0.03120    0.04171    0.01298      0.42226      0.00000      0.01756      0.49005      0.00000      
15600   0.50833    0.03119    0.04166    0.01297      0.42252      0.00000      0.01771      0.48914      0.00000      
15700   0.50746    0.03127    0.04183    0.01321      0.42116      0.00000      0.01835      0.48986      0.00000      
15800   0.50626    0.03116    0.04169    0.01307      0.42033      0.00000      0.01797      0.48983      0.00000      
15900   0.50509    0.03089    0.04141    0.01297      0.41982      0.00000      0.01824      0.48934      0.00000      
16000   0.50376    0.03103    0.04152    0.01297      0.41824      0.00000      0.01778      0.48409      0.00000      
16100   0.50488    0.03118    0.04164    0.01305      0.41902      0.00000      0.01812      0.49018      0.00000      
16200   0.50446    0.03109    0.04151    0.01283      0.41903      0.00000      0.01793      0.48799      0.00000      
16300   0.50323    0.03103    0.04156    0.01284      0.41781      0.00000      0.01758      0.48534      0.00000      
16400   0.50386    0.03112    0.04161    0.01276      0.41836      0.00000      0.01865      0.48359      0.00000      
16500   0.50343    0.03119    0.04177    0.01310      0.41738      0.00000      0.01837      0.48414      0.00000      
16600   0.50272    0.03119    0.04179    0.01268      0.41706      0.00000      0.01776      0.48386      0.00000      
16700   0.50331    0.03141    0.04193    0.01232      0.41766      0.00000      0.01805      0.48993      0.00000      
16800   0.50126    0.03116    0.04173    0.01264      0.41573      0.00000      0.01749      0.48690      0.00000      
16900   0.50070    0.03109    0.04153    0.01244      0.41565      0.00000      0.01753      0.48516      0.00000      
17000   0.49991    0.03114    0.04168    0.01232      0.41477      0.00000      0.01769      0.48638      0.00000      
17100   0.49896    0.03111    0.04149    0.01250      0.41386      0.00000      0.01813      0.48429      0.00000      
17200   0.49962    0.03092    0.04128    0.01253      0.41490      0.00000      0.01749      0.48211      0.00000      
17300   0.49850    0.03077    0.04110    0.01246      0.41417      0.00000      0.01798      0.48302      0.00000      
17400   0.49765    0.03075    0.04107    0.01239      0.41344      0.00000      0.01792      0.48224      0.00000      
17500   0.49782    0.03072    0.04102    0.01255      0.41353      0.00000      0.01798      0.48120      0.00000      
17600   0.49696    0.03073    0.04104    0.01271      0.41248      0.00000      0.01794      0.48058      0.00000      
17700   0.49655    0.03072    0.04089    0.01250      0.41245      0.00000      0.01784      0.48496      0.00000      
17800   0.49560    0.03050    0.04059    0.01261      0.41190      0.00000      0.01776      0.48218      0.00000      
17900   0.49486    0.03052    0.04059    0.01242      0.41134      0.00000      0.01752      0.48240      0.00000      
18000   0.49552    0.03049    0.04047    0.01288      0.41168      0.00000      0.01757      0.48126      0.00000      
18100   0.49464    0.03041    0.04040    0.01258      0.41125      0.00000      0.01742      0.48316      0.00000      
18200   0.49383    0.03052    0.04059    0.01258      0.41015      0.00000      0.01755      0.48214      0.00000      
18300   0.49319    0.03054    0.04065    0.01271      0.40929      0.00000      0.01773      0.48236      0.00000      
18400   0.49337    0.03054    0.04054    0.01256      0.40974      0.00000      0.01694      0.48159      0.00000      
18500   0.49179    0.03052    0.04045    0.01241      0.40841      0.00000      0.01771      0.48297      0.00000      
18600   0.49120    0.03048    0.04053    0.01236      0.40783      0.00000      0.01728      0.48526      0.00000      
18700   0.49147    0.03046    0.04041    0.01251      0.40809      0.00000      0.01712      0.48168      0.00000      
18800   0.49171    0.03047    0.04052    0.01233      0.40839      0.00000      0.01748      0.48497      0.00000      
18900   0.49096    0.03046    0.04057    0.01251      0.40742      0.00000      0.01731      0.48226      0.00000      
19000   0.49145    0.03054    0.04064    0.01228      0.40799      0.00000      0.01768      0.48377      0.00000      
19100   0.49130    0.03048    0.04067    0.01255      0.40760      0.00000      0.01733      0.48403      0.00000      
19200   0.49055    0.03046    0.04072    0.01270      0.40666      0.00000      0.01779      0.48122      0.00000      
19300   0.48978    0.03043    0.04071    0.01252      0.40612      0.00000      0.01779      0.48073      0.00000      
19400   0.49007    0.03046    0.04071    0.01248      0.40643      0.00000      0.01735      0.48169      0.00000      
19500   0.48991    0.03037    0.04062    0.01255      0.40636      0.00000      0.01773      0.48147      0.00000      
19600   0.48962    0.03032    0.04059    0.01249      0.40622      0.00000      0.01810      0.48280      0.00000      
19700   0.48911    0.03033    0.04054    0.01224      0.40599      0.00000      0.01750      0.48358      0.00000      
19800   0.48856    0.03035    0.04066    0.01228      0.40527      0.00000      0.01768      0.48173      0.00000      
19900   0.48806    0.03030    0.04065    0.01248      0.40464      0.00000      0.01770      0.48000      0.00000      
20000   0.48751    0.03029    0.04057    0.01214      0.40452      0.00000      0.01700      0.48269      0.00000      
20100   0.48653    0.03022    0.04050    0.01217      0.40364      0.00000      0.01750      0.47985      0.00000      
20200   0.48664    0.03032    0.04060    0.01222      0.40349      0.00000      0.01732      0.47901      0.00000      
20300   0.48654    0.03031    0.04060    0.01220      0.40343      0.00000      0.01662      0.48023      0.00000      
20400   0.48627    0.03042    0.04072    0.01233      0.40280      0.00000      0.01749      0.47620      0.00000      
20500   0.48629    0.03043    0.04073    0.01215      0.40298      0.00000      0.01710      0.47986      0.00000      
20600   0.48535    0.03039    0.04067    0.01205      0.40223      0.00000      0.01741      0.47840      0.00000      
20700   0.48485    0.03033    0.04065    0.01209      0.40177      0.00000      0.01737      0.47882      0.00000      
20800   0.48481    0.03017    0.04047    0.01241      0.40175      0.00000      0.01771      0.48094      0.00000      
20900   0.48396    0.03026    0.04055    0.01210      0.40106      0.00000      0.01698      0.47999      0.00000      
21000   0.48385    0.03005    0.04040    0.01200      0.40139      0.00000      0.01709      0.47942      0.00000      
21100   0.48354    0.03007    0.04027    0.01202      0.40118      0.00000      0.01716      0.48128      0.00000      
21200   0.48320    0.03009    0.04039    0.01203      0.40069      0.00000      0.01725      0.47858      0.00000      
21300   0.48249    0.03000    0.04021    0.01214      0.40015      0.00000      0.01703      0.47962      0.00000      
21400   0.48169    0.02996    0.04027    0.01224      0.39922      0.00000      0.01747      0.47722      0.00000      
21500   0.48113    0.02985    0.04016    0.01210      0.39903      0.00000      0.01744      0.47552      0.00000      
21600   0.48087    0.02974    0.04002    0.01232      0.39879      0.00000      0.01743      0.47564      0.00000      
21700   0.48101    0.02976    0.03992    0.01210      0.39922      0.00000      0.01739      0.47787      0.00000      
21800   0.48048    0.02968    0.03990    0.01202      0.39888      0.00000      0.01744      0.47725      0.00000      
21900   0.48013    0.02951    0.03973    0.01202      0.39887      0.00000      0.01721      0.47862      0.00000      
22000   0.47958    0.02943    0.03971    0.01217      0.39826      0.00000      0.01743      0.47693      0.00000      
22100   0.47939    0.02939    0.03969    0.01232      0.39800      0.00000      0.01750      0.47809      0.00000      
22200   0.47907    0.02926    0.03952    0.01211      0.39818      0.00000      0.01793      0.47972      0.00000      
22300   0.47840    0.02922    0.03946    0.01187      0.39785      0.00000      0.01740      0.47759      0.00000      
22400   0.47765    0.02920    0.03938    0.01181      0.39726      0.00000      0.01720      0.47846      0.00000      
22500   0.47755    0.02917    0.03936    0.01206      0.39696      0.00000      0.01755      0.47682      0.00000      
22600   0.47672    0.02922    0.03928    0.01197      0.39624      0.00000      0.01723      0.47516      0.00000      
22700   0.47684    0.02911    0.03929    0.01199      0.39645      0.00000      0.01713      0.47694      0.00000      
22800   0.47586    0.02916    0.03932    0.01209      0.39529      0.00000      0.01699      0.47450      0.00000      
22900   0.47600    0.02918    0.03929    0.01177      0.39576      0.00000      0.01723      0.47421      0.00000      
23000   0.47563    0.02914    0.03919    0.01183      0.39546      0.00000      0.01709      0.47590      0.00000      
23100   0.47546    0.02938    0.03942    0.01184      0.39482      0.00000      0.01653      0.47664      0.00000      
23200   0.47514    0.02931    0.03940    0.01180      0.39463      0.00000      0.01692      0.47764      0.00000      
23300   0.47484    0.02930    0.03942    0.01169      0.39442      0.00000      0.01683      0.47561      0.00000      
23400   0.47438    0.02929    0.03942    0.01151      0.39416      0.00000      0.01655      0.47787      0.00000      
23500   0.47400    0.02938    0.03954    0.01159      0.39350      0.00000      0.01677      0.47774      0.00000      
23600   0.47398    0.02939    0.03945    0.01169      0.39345      0.00000      0.01713      0.47532      0.00000      
23700   0.47298    0.02925    0.03932    0.01170      0.39271      0.00000      0.01698      0.47425      0.00000      
23800   0.47336    0.02931    0.03934    0.01161      0.39310      0.00000      0.01711      0.47595      0.00000      
23900   0.47317    0.02920    0.03915    0.01162      0.39321      0.00000      0.01681      0.47680      0.00000      
24000   0.47261    0.02907    0.03906    0.01147      0.39301      0.00000      0.01683      0.47566      0.00000      
24100   0.47225    0.02892    0.03894    0.01146      0.39292      0.00000      0.01653      0.47483      0.00000      
24200   0.47226    0.02897    0.03898    0.01152      0.39279      0.00000      0.01677      0.47554      0.00000      
24300   0.47281    0.02899    0.03901    0.01150      0.39331      0.00000      0.01701      0.47663      0.00000      
24400   0.47216    0.02900    0.03897    0.01177      0.39242      0.00000      0.01668      0.47513      0.00000      
24500   0.47160    0.02901    0.03895    0.01169      0.39195      0.00000      0.01679      0.47497      0.00000      
24600   0.47140    0.02901    0.03886    0.01149      0.39205      0.00000      0.01695      0.47811      0.00000      
24700   0.47120    0.02886    0.03877    0.01144      0.39213      0.00000      0.01670      0.48041      0.00000      
24800   0.47072    0.02885    0.03873    0.01158      0.39155      0.00000      0.01670      0.47735      0.00000      
24900   0.47016    0.02896    0.03878    0.01174      0.39069      0.00000      0.01653      0.47606      0.00000      
25000   0.47014    0.02884    0.03864    0.01154      0.39111      0.00000      0.01713      0.47570      0.00000      
25100   0.46972    0.02877    0.03855    0.01169      0.39071      0.00000      0.01696      0.47641      0.00000      
25200   0.46945    0.02877    0.03861    0.01154      0.39053      0.00000      0.01674      0.47787      0.00000      
25300   0.46965    0.02875    0.03864    0.01165      0.39061      0.00000      0.01669      0.47509      0.00000      
25400   0.46928    0.02872    0.03857    0.01156      0.39043      0.00000      0.01671      0.47708      0.00000      
25500   0.46942    0.02862    0.03845    0.01150      0.39084      0.00000      0.01679      0.47578      0.00000      
25600   0.46933    0.02857    0.03834    0.01136      0.39105      0.00000      0.01668      0.47528      0.00000      
25700   0.46832    0.02854    0.03832    0.01146      0.39001      0.00000      0.01654      0.47470      0.00000      
25800   0.46849    0.02859    0.03831    0.01152      0.39007      0.00000      0.01713      0.47498      0.00000      
25900   0.46810    0.02855    0.03826    0.01152      0.38977      0.00000      0.01675      0.47527      0.00000      
26000   0.46789    0.02858    0.03827    0.01135      0.38969      0.00000      0.01645      0.47434      0.00000      
26100   0.46724    0.02859    0.03832    0.01135      0.38898      0.00000      0.01669      0.47602      0.00000      
26200   0.46685    0.02852    0.03818    0.01143      0.38872      0.00000      0.01651      0.47437      0.00000      
26300   0.46652    0.02846    0.03814    0.01144      0.38847      0.00000      0.01647      0.47415      0.00000      
26400   0.46643    0.02847    0.03818    0.01137      0.38841      0.00000      0.01677      0.47691      0.00000      
26500   0.46648    0.02840    0.03815    0.01124      0.38869      0.00000      0.01653      0.47647      0.00000      
26600   0.46609    0.02842    0.03813    0.01114      0.38841      0.00000      0.01657      0.47669      0.00000      
26700   0.46580    0.02845    0.03811    0.01130      0.38795      0.00000      0.01636      0.47784      0.00000      
26800   0.46574    0.02843    0.03811    0.01129      0.38791      0.00000      0.01620      0.47644      0.00000      
26900   0.46535    0.02840    0.03818    0.01122      0.38755      0.00000      0.01649      0.47659      0.00000      
27000   0.46518    0.02839    0.03808    0.01139      0.38732      0.00000      0.01636      0.47461      0.00000      
27100   0.46498    0.02846    0.03813    0.01139      0.38701      0.00000      0.01646      0.47526      0.00000      
27200   0.46460    0.02839    0.03815    0.01123      0.38684      0.00000      0.01616      0.47450      0.00000      
27300   0.46431    0.02835    0.03809    0.01125      0.38662      0.00000      0.01642      0.47445      0.00000      
27400   0.46418    0.02838    0.03810    0.01132      0.38638      0.00000      0.01644      0.47463      0.00000      
27500   0.46396    0.02832    0.03814    0.01124      0.38625      0.00000      0.01634      0.47352      0.00000      
27600   0.46334    0.02829    0.03813    0.01122      0.38570      0.00000      0.01613      0.47401      0.00000      
27700   0.46346    0.02821    0.03799    0.01129      0.38597      0.00000      0.01643      0.47238      0.00000      
27800   0.46270    0.02819    0.03799    0.01133      0.38520      0.00000      0.01640      0.47400      0.00000      
27900   0.46270    0.02812    0.03793    0.01138      0.38527      0.00000      0.01644      0.47189      0.00000      
28000   0.46252    0.02801    0.03785    0.01113      0.38553      0.00000      0.01626      0.47161      0.00000      
28100   0.46227    0.02807    0.03789    0.01131      0.38501      0.00000      0.01650      0.47180      0.00000      
28200   0.46212    0.02813    0.03783    0.01124      0.38492      0.00000      0.01625      0.47250      0.00000      
28300   0.46210    0.02806    0.03781    0.01137      0.38487      0.00000      0.01624      0.47324      0.00000      
28400   0.46155    0.02798    0.03768    0.01101      0.38488      0.00000      0.01628      0.47356      0.00000      
28500   0.46161    0.02800    0.03775    0.01113      0.38473      0.00000      0.01650      0.47362      0.00000      
28600   0.46108    0.02794    0.03766    0.01131      0.38417      0.00000      0.01644      0.47301      0.00000      
28700   0.46106    0.02795    0.03766    0.01111      0.38435      0.00000      0.01622      0.47475      0.00000      
28800   0.46087    0.02796    0.03768    0.01121      0.38402      0.00000      0.01619      0.47443      0.00000      
28900   0.46076    0.02787    0.03760    0.01124      0.38405      0.00000      0.01623      0.47352      0.00000      
29000   0.46060    0.02793    0.03771    0.01118      0.38378      0.00000      0.01602      0.47208      0.00000      
29100   0.46001    0.02782    0.03766    0.01116      0.38337      0.00000      0.01647      0.47406      0.00000      
29200   0.45950    0.02779    0.03763    0.01120      0.38288      0.00000      0.01617      0.47333      0.00000      
29300   0.45963    0.02772    0.03754    0.01120      0.38317      0.00000      0.01631      0.47317      0.00000      
29400   0.45953    0.02775    0.03758    0.01139      0.38281      0.00000      0.01609      0.47266      0.00000      
29500   0.45899    0.02773    0.03757    0.01118      0.38251      0.00000      0.01618      0.47373      0.00000      
29600   0.45899    0.02773    0.03758    0.01101      0.38267      0.00000      0.01638      0.47338      0.00000      
29700   0.45874    0.02771    0.03750    0.01110      0.38243      0.00000      0.01608      0.47246      0.00000      
29800   0.45818    0.02761    0.03748    0.01123      0.38186      0.00000      0.01613      0.47214      0.00000      
29900   0.45805    0.02759    0.03748    0.01122      0.38176      0.00000      0.01640      0.47261      0.00000      
30000   0.45783    0.02762    0.03754    0.01117      0.38151      0.00000      0.01622      0.47422      0.00000      
30100   0.45779    0.02773    0.03758    0.01111      0.38137      0.00000      0.01661      0.47205      0.00000      
30200   0.45743    0.02773    0.03758    0.01116      0.38096      0.00000      0.01616      0.47273      0.00000      
30300   0.45706    0.02763    0.03753    0.01110      0.38080      0.00000      0.01623      0.47284      0.00000      
30400   0.45744    0.02764    0.03751    0.01116      0.38113      0.00000      0.01605      0.47156      0.00000      
30500   0.45718    0.02763    0.03747    0.01104      0.38104      0.00000      0.01603      0.47253      0.00000      
30600   0.45682    0.02755    0.03738    0.01115      0.38073      0.00000      0.01586      0.47297      0.00000      
30700   0.45672    0.02759    0.03746    0.01110      0.38057      0.00000      0.01614      0.47191      0.00000      
30800   0.45637    0.02749    0.03735    0.01118      0.38036      0.00000      0.01608      0.47015      0.00000      
30900   0.45624    0.02759    0.03743    0.01114      0.38008      0.00000      0.01604      0.47133      0.00000      
31000   0.45613    0.02758    0.03737    0.01106      0.38012      0.00000      0.01587      0.47132      0.00000      
31100   0.45584    0.02758    0.03732    0.01110      0.37984      0.00000      0.01612      0.47091      0.00000      
31200   0.45538    0.02749    0.03725    0.01117      0.37948      0.00000      0.01598      0.47145      0.00000      
31300   0.45513    0.02744    0.03721    0.01119      0.37929      0.00000      0.01603      0.47020      0.00000      
31400   0.45473    0.02736    0.03717    0.01108      0.37912      0.00000      0.01623      0.47253      0.00000      
31500   0.45444    0.02726    0.03707    0.01104      0.37906      0.00000      0.01631      0.47119      0.00000      
31600   0.45425    0.02722    0.03705    0.01109      0.37888      0.00000      0.01615      0.47188      0.00000      
31700   0.45405    0.02727    0.03707    0.01107      0.37864      0.00000      0.01598      0.47205      0.00000      
31800   0.45404    0.02732    0.03709    0.01113      0.37850      0.00000      0.01587      0.47073      0.00000      
31900   0.45371    0.02731    0.03706    0.01114      0.37820      0.00000      0.01620      0.47163      0.00000      
32000   0.45350    0.02724    0.03699    0.01101      0.37826      0.00000      0.01599      0.47171      0.00000      
32100   0.45312    0.02722    0.03697    0.01090      0.37803      0.00000      0.01601      0.47092      0.00000      
32200   0.45285    0.02718    0.03693    0.01107      0.37768      0.00000      0.01586      0.47156      0.00000      
32300   0.45241    0.02715    0.03688    0.01102      0.37735      0.00000      0.01589      0.47063      0.00000      
32400   0.45225    0.02710    0.03684    0.01100      0.37731      0.00000      0.01582      0.46968      0.00000      
32500   0.45195    0.02709    0.03685    0.01109      0.37693      0.00000      0.01587      0.47065      0.00000      
32600   0.45197    0.02710    0.03686    0.01114      0.37688      0.00000      0.01583      0.46947      0.00000      
32700   0.45143    0.02707    0.03683    0.01104      0.37649      0.00000      0.01592      0.47041      0.00000      
32800   0.45126    0.02701    0.03677    0.01104      0.37644      0.00000      0.01598      0.47123      0.00000      
32900   0.45137    0.02711    0.03685    0.01105      0.37636      0.00000      0.01577      0.47141      0.00000      
33000   0.45099    0.02698    0.03672    0.01098      0.37630      0.00000      0.01587      0.47039      0.00000      
33100   0.45088    0.02700    0.03668    0.01115      0.37604      0.00000      0.01586      0.47046      0.00000      
33200   0.45057    0.02695    0.03664    0.01111      0.37588      0.00000      0.01566      0.46953      0.00000      
33300   0.45022    0.02694    0.03661    0.01114      0.37554      0.00000      0.01581      0.46895      0.00000      
33400   0.45019    0.02691    0.03658    0.01125      0.37545      0.00000      0.01582      0.46668      0.00000      
33500   0.44980    0.02693    0.03660    0.01112      0.37516      0.00000      0.01568      0.46831      0.00000      
33600   0.44991    0.02688    0.03655    0.01096      0.37552      0.00000      0.01563      0.46781      0.00000      
33700   0.44961    0.02691    0.03656    0.01098      0.37516      0.00000      0.01569      0.46735      0.00000      
33800   0.44949    0.02688    0.03655    0.01108      0.37499      0.00000      0.01568      0.46778      0.00000      
33900   0.44921    0.02687    0.03653    0.01112      0.37469      0.00000      0.01573      0.46659      0.00000      
34000   0.44907    0.02684    0.03654    0.01121      0.37448      0.00000      0.01578      0.46675      0.00000      
34100   0.44885    0.02685    0.03651    0.01112      0.37437      0.00000      0.01563      0.46697      0.00000      
34200   0.44878    0.02679    0.03651    0.01107      0.37442      0.00000      0.01539      0.46718      0.00000      
34300   0.44853    0.02677    0.03649    0.01095      0.37431      0.00000      0.01556      0.46609      0.00000      
34400   0.44835    0.02671    0.03647    0.01103      0.37414      0.00000      0.01556      0.46637      0.00000      
34500   0.44816    0.02675    0.03649    0.01108      0.37385      0.00000      0.01544      0.46588      0.00000      
34600   0.44775    0.02675    0.03651    0.01101      0.37348      0.00000      0.01561      0.46526      0.00000      
34700   0.44764    0.02673    0.03651    0.01094      0.37346      0.00000      0.01544      0.46520      0.00000      
34800   0.44742    0.02672    0.03649    0.01083      0.37338      0.00000      0.01564      0.46623      0.00000      
34900   0.44747    0.02673    0.03646    0.01085      0.37343      0.00000      0.01564      0.46771      0.00000      
35000   0.44715    0.02665    0.03641    0.01096      0.37313      0.00000      0.01571      0.46698      0.00000      
35100   0.44696    0.02667    0.03639    0.01097      0.37293      0.00000      0.01561      0.46714      0.00000      
35200   0.44673    0.02667    0.03640    0.01092      0.37273      0.00000      0.01539      0.46713      0.00000      
35300   0.44649    0.02661    0.03633    0.01092      0.37263      0.00000      0.01546      0.46567      0.00000      
35400   0.44633    0.02659    0.03630    0.01083      0.37261      0.00000      0.01549      0.46599      0.00000      
35500   0.44622    0.02658    0.03632    0.01072      0.37261      0.00000      0.01534      0.46593      0.00000      
35600   0.44596    0.02664    0.03636    0.01090      0.37206      0.00000      0.01526      0.46598      0.00000      
35700   0.44571    0.02664    0.03635    0.01091      0.37181      0.00000      0.01531      0.46633      0.00000      
35800   0.44567    0.02664    0.03632    0.01080      0.37191      0.00000      0.01526      0.46495      0.00000      
35900   0.44534    0.02659    0.03626    0.01078      0.37171      0.00000      0.01532      0.46451      0.00000      
36000   0.44510    0.02650    0.03622    0.01078      0.37160      0.00000      0.01540      0.46446      0.00000      
36100   0.44482    0.02652    0.03621    0.01076      0.37134      0.00000      0.01523      0.46512      0.00000      
36200   0.44461    0.02644    0.03616    0.01071      0.37130      0.00000      0.01517      0.46529      0.00000      
36300   0.44438    0.02645    0.03615    0.01082      0.37096      0.00000      0.01539      0.46427      0.00000      
36400   0.44426    0.02647    0.03616    0.01083      0.37079      0.00000      0.01537      0.46494      0.00000      
36500   0.44392    0.02643    0.03613    0.01072      0.37064      0.00000      0.01535      0.46503      0.00000      
36600   0.44384    0.02638    0.03607    0.01077      0.37063      0.00000      0.01538      0.46401      0.00000      
36700   0.44330    0.02636    0.03606    0.01076      0.37011      0.00000      0.01520      0.46351      0.00000      
36800   0.44322    0.02638    0.03609    0.01075      0.37000      0.00000      0.01529      0.46543      0.00000      
36900   0.44305    0.02631    0.03605    0.01081      0.36988      0.00000      0.01531      0.46522      0.00000      
37000   0.44291    0.02634    0.03605    0.01085      0.36966      0.00000      0.01543      0.46472      0.00000      
37100   0.44257    0.02625    0.03599    0.01076      0.36957      0.00000      0.01541      0.46456      0.00000      
37200   0.44240    0.02616    0.03592    0.01078      0.36954      0.00000      0.01533      0.46455      0.00000      
37300   0.44225    0.02608    0.03586    0.01076      0.36956      0.00000      0.01524      0.46432      0.00000      
37400   0.44202    0.02606    0.03584    0.01083      0.36928      0.00000      0.01541      0.46393      0.00000      
37500   0.44190    0.02607    0.03585    0.01073      0.36925      0.00000      0.01548      0.46477      0.00000      
37600   0.44170    0.02605    0.03583    0.01068      0.36915      0.00000      0.01550      0.46408      0.00000      
37700   0.44148    0.02599    0.03580    0.01085      0.36885      0.00000      0.01542      0.46454      0.00000      
37800   0.44125    0.02600    0.03582    0.01064      0.36879      0.00000      0.01536      0.46459      0.00000      
37900   0.44120    0.02600    0.03581    0.01068      0.36870      0.00000      0.01550      0.46566      0.00000      
38000   0.44092    0.02598    0.03579    0.01070      0.36844      0.00000      0.01550      0.46595      0.00000      
38100   0.44077    0.02599    0.03575    0.01070      0.36833      0.00000      0.01535      0.46494      0.00000      
38200   0.44060    0.02598    0.03575    0.01078      0.36809      0.00000      0.01549      0.46521      0.00000      
38300   0.44039    0.02595    0.03573    0.01070      0.36800      0.00000      0.01544      0.46357      0.00000      
38400   0.44019    0.02592    0.03570    0.01075      0.36782      0.00000      0.01549      0.46409      0.00000      
38500   0.44005    0.02598    0.03573    0.01071      0.36764      0.00000      0.01557      0.46403      0.00000      
38600   0.43995    0.02594    0.03571    0.01073      0.36757      0.00000      0.01540      0.46394      0.00000      
38700   0.43987    0.02594    0.03569    0.01072      0.36752      0.00000      0.01556      0.46339      0.00000      
38800   0.43975    0.02595    0.03568    0.01070      0.36741      0.00000      0.01547      0.46316      0.00000      
38900   0.43951    0.02590    0.03568    0.01068      0.36725      0.00000      0.01526      0.46307      0.00000      
39000   0.43918    0.02584    0.03564    0.01075      0.36696      0.00000      0.01543      0.46313      0.00000      
39100   0.43911    0.02584    0.03566    0.01075      0.36687      0.00000      0.01540      0.46341      0.00000      
39200   0.43900    0.02585    0.03565    0.01081      0.36669      0.00000      0.01546      0.46258      0.00000      
39300   0.43888    0.02587    0.03565    0.01080      0.36656      0.00000      0.01547      0.46302      0.00000      
39400   0.43881    0.02588    0.03561    0.01070      0.36663      0.00000      0.01541      0.46286      0.00000      
39500   0.43856    0.02584    0.03558    0.01068      0.36646      0.00000      0.01542      0.46222      0.00000      
39600   0.43842    0.02590    0.03564    0.01074      0.36614      0.00000      0.01547      0.46304      0.00000      
39700   0.43833    0.02588    0.03563    0.01068      0.36615      0.00000      0.01531      0.46399      0.00000      
39800   0.43821    0.02588    0.03561    0.01069      0.36602      0.00000      0.01526      0.46274      0.00000      
39900   0.43811    0.02584    0.03561    0.01079      0.36588      0.00000      0.01549      0.46298      0.00000      
40000   0.43795    0.02582    0.03556    0.01068      0.36589      0.00000      0.01547      0.46307      0.00000      
40100   0.43791    0.02581    0.03556    0.01068      0.36586      0.00000      0.01530      0.46172      0.00000      
40200   0.43767    0.02581    0.03557    0.01069      0.36560      0.00000      0.01546      0.46380      0.00000      
40300   0.43762    0.02578    0.03554    0.01065      0.36564      0.00000      0.01544      0.46282      0.00000      
40400   0.43745    0.02579    0.03552    0.01062      0.36552      0.00000      0.01545      0.46326      0.00000      
40500   0.43724    0.02579    0.03551    0.01072      0.36522      0.00000      0.01528      0.46254      0.00000      
40600   0.43713    0.02575    0.03548    0.01061      0.36529      0.00000      0.01532      0.46124      0.00000      
40700   0.43694    0.02573    0.03545    0.01065      0.36510      0.00000      0.01530      0.46073      0.00000      
40800   0.43684    0.02573    0.03545    0.01056      0.36509      0.00000      0.01539      0.46126      0.00000      
40900   0.43674    0.02574    0.03546    0.01062      0.36493      0.00000      0.01540      0.46088      0.00000      
41000   0.43652    0.02570    0.03544    0.01063      0.36475      0.00000      0.01546      0.46151      0.00000      
41100   0.43640    0.02567    0.03541    0.01061      0.36471      0.00000      0.01551      0.46150      0.00000      
41200   0.43628    0.02567    0.03538    0.01057      0.36467      0.00000      0.01531      0.46076      0.00000      
41300   0.43608    0.02563    0.03536    0.01066      0.36443      0.00000      0.01528      0.46180      0.00000      
41400   0.43590    0.02563    0.03536    0.01070      0.36422      0.00000      0.01540      0.46025      0.00000      
41500   0.43574    0.02562    0.03536    0.01070      0.36406      0.00000      0.01548      0.46127      0.00000      
41600   0.43559    0.02561    0.03532    0.01069      0.36396      0.00000      0.01529      0.46082      0.00000      
41700   0.43555    0.02564    0.03535    0.01065      0.36390      0.00000      0.01531      0.46070      0.00000      
41800   0.43529    0.02558    0.03534    0.01073      0.36365      0.00000      0.01535      0.46128      0.00000      
41900   0.43512    0.02556    0.03534    0.01070      0.36352      0.00000      0.01527      0.46093      0.00000      
42000   0.43498    0.02559    0.03532    0.01064      0.36343      0.00000      0.01531      0.46027      0.00000      
42100   0.43483    0.02556    0.03531    0.01068      0.36328      0.00000      0.01530      0.46050      0.00000      
42200   0.43473    0.02557    0.03532    0.01065      0.36319      0.00000      0.01535      0.46047      0.00000      
42300   0.43459    0.02553    0.03529    0.01067      0.36309      0.00000      0.01541      0.45955      0.00000      
42400   0.43435    0.02553    0.03528    0.01062      0.36292      0.00000      0.01535      0.46045      0.00000      
42500   0.43422    0.02553    0.03529    0.01062      0.36278      0.00000      0.01547      0.45962      0.00000      
42600   0.43403    0.02551    0.03528    0.01060      0.36263      0.00000      0.01541      0.45948      0.00000      
42700   0.43386    0.02551    0.03527    0.01060      0.36250      0.00000      0.01541      0.45989      0.00000      
42800   0.43367    0.02547    0.03524    0.01058      0.36238      0.00000      0.01537      0.45939      0.00000      
42900   0.43345    0.02544    0.03521    0.01058      0.36223      0.00000      0.01526      0.45979      0.00000      
43000   0.43326    0.02542    0.03518    0.01056      0.36209      0.00000      0.01542      0.45933      0.00000      
43100   0.43317    0.02542    0.03519    0.01056      0.36199      0.00000      0.01528      0.45941      0.00000      
43200   0.43298    0.02541    0.03517    0.01054      0.36186      0.00000      0.01528      0.45984      0.00000      
43300   0.43284    0.02539    0.03513    0.01053      0.36180      0.00000      0.01537      0.45916      0.00000      
43400   0.43272    0.02536    0.03513    0.01053      0.36170      0.00000      0.01541      0.45975      0.00000      
43500   0.43258    0.02535    0.03511    0.01054      0.36158      0.00000      0.01542      0.45937      0.00000      
43600   0.43249    0.02533    0.03511    0.01053      0.36153      0.00000      0.01536      0.45985      0.00000      
43700   0.43231    0.02530    0.03509    0.01052      0.36140      0.00000      0.01533      0.45920      0.00000      
43800   0.43216    0.02529    0.03507    0.01057      0.36123      0.00000      0.01525      0.45863      0.00000      
43900   0.43198    0.02528    0.03506    0.01059      0.36106      0.00000      0.01539      0.45891      0.00000      
44000   0.43181    0.02527    0.03504    0.01057      0.36093      0.00000      0.01532      0.45864      0.00000      
44100   0.43167    0.02529    0.03503    0.01054      0.36082      0.00000      0.01539      0.45867      0.00000      
44200   0.43156    0.02527    0.03504    0.01056      0.36069      0.00000      0.01528      0.45913      0.00000      
44300   0.43139    0.02524    0.03501    0.01057      0.36057      0.00000      0.01542      0.45892      0.00000      
44400   0.43130    0.02526    0.03501    0.01049      0.36054      0.00000      0.01539      0.45906      0.00000      
44500   0.43119    0.02525    0.03502    0.01061      0.36031      0.00000      0.01537      0.45918      0.00000      
44600   0.43100    0.02523    0.03500    0.01049      0.36029      0.00000      0.01528      0.45803      0.00000      
44700   0.43088    0.02522    0.03498    0.01052      0.36016      0.00000      0.01553      0.45879      0.00000      
44800   0.43078    0.02522    0.03497    0.01053      0.36006      0.00000      0.01542      0.45834      0.00000      
44900   0.43069    0.02522    0.03495    0.01057      0.35996      0.00000      0.01538      0.45793      0.00000      
45000   0.43057    0.02523    0.03498    0.01051      0.35986      0.00000      0.01533      0.45843      0.00000      
45100   0.43042    0.02522    0.03497    0.01048      0.35974      0.00000      0.01527      0.45822      0.00000      
45200   0.43030    0.02519    0.03495    0.01045      0.35972      0.00000      0.01530      0.45824      0.00000      
45300   0.43015    0.02517    0.03491    0.01054      0.35953      0.00000      0.01534      0.45761      0.00000      
45400   0.43004    0.02518    0.03492    0.01042      0.35952      0.00000      0.01531      0.45750      0.00000      
45500   0.42987    0.02513    0.03490    0.01053      0.35930      0.00000      0.01543      0.45709      0.00000      
45600   0.42968    0.02515    0.03490    0.01046      0.35917      0.00000      0.01539      0.45790      0.00000      
45700   0.42955    0.02515    0.03488    0.01052      0.35900      0.00000      0.01539      0.45790      0.00000      
45800   0.42944    0.02515    0.03490    0.01045      0.35893      0.00000      0.01522      0.45847      0.00000      
45900   0.42931    0.02516    0.03489    0.01040      0.35886      0.00000      0.01539      0.45722      0.00000      
46000   0.42912    0.02512    0.03486    0.01043      0.35871      0.00000      0.01534      0.45829      0.00000      
46100   0.42898    0.02511    0.03486    0.01049      0.35851      0.00000      0.01549      0.45772      0.00000      
46200   0.42888    0.02512    0.03486    0.01042      0.35849      0.00000      0.01541      0.45839      0.00000      
46300   0.42873    0.02510    0.03483    0.01042      0.35838      0.00000      0.01529      0.45830      0.00000      
46400   0.42860    0.02510    0.03483    0.01046      0.35820      0.00000      0.01533      0.45782      0.00000      
46500   0.42845    0.02510    0.03483    0.01045      0.35807      0.00000      0.01543      0.45763      0.00000      
46600   0.42831    0.02510    0.03482    0.01047      0.35792      0.00000      0.01531      0.45842      0.00000      
46700   0.42822    0.02508    0.03481    0.01053      0.35782      0.00000      0.01540      0.45815      0.00000      
46800   0.42819    0.02505    0.03479    0.01047      0.35788      0.00000      0.01541      0.45791      0.00000      
46900   0.42794    0.02505    0.03478    0.01046      0.35765      0.00000      0.01531      0.45773      0.00000      
47000   0.42783    0.02504    0.03478    0.01040      0.35761      0.00000      0.01527      0.45879      0.00000      
47100   0.42770    0.02505    0.03479    0.01047      0.35739      0.00000      0.01525      0.45839      0.00000      
47200   0.42758    0.02502    0.03476    0.01039      0.35741      0.00000      0.01524      0.45902      0.00000      
47300   0.42747    0.02498    0.03473    0.01047      0.35730      0.00000      0.01533      0.45895      0.00000      
47400   0.42737    0.02499    0.03473    0.01041      0.35724      0.00000      0.01527      0.45885      0.00000      
47500   0.42723    0.02494    0.03469    0.01046      0.35714      0.00000      0.01535      0.45827      0.00000      
47600   0.42711    0.02496    0.03471    0.01044      0.35700      0.00000      0.01541      0.45730      0.00000      
47700   0.42702    0.02497    0.03472    0.01051      0.35683      0.00000      0.01532      0.45809      0.00000      
47800   0.42692    0.02497    0.03471    0.01050      0.35675      0.00000      0.01537      0.45809      0.00000      
47900   0.42675    0.02494    0.03469    0.01044      0.35668      0.00000      0.01528      0.45786      0.00000      
48000   0.42665    0.02494    0.03468    0.01044      0.35659      0.00000      0.01536      0.45791      0.00000      
48100   0.42652    0.02493    0.03468    0.01047      0.35643      0.00000      0.01541      0.45778      0.00000      
48200   0.42643    0.02490    0.03466    0.01052      0.35635      0.00000      0.01523      0.45796      0.00000      
48300   0.42632    0.02491    0.03466    0.01046      0.35630      0.00000      0.01544      0.45801      0.00000      
48400   0.42618    0.02490    0.03463    0.01040      0.35624      0.00000      0.01526      0.45823      0.00000      
48500   0.42605    0.02492    0.03464    0.01048      0.35602      0.00000      0.01520      0.45818      0.00000      
48600   0.42593    0.02491    0.03464    0.01040      0.35598      0.00000      0.01527      0.45870      0.00000      
48700   0.42578    0.02490    0.03465    0.01044      0.35579      0.00000      0.01517      0.45828      0.00000      
48800   0.42565    0.02488    0.03463    0.01039      0.35575      0.00000      0.01520      0.45817      0.00000      
48900   0.42554    0.02487    0.03461    0.01050      0.35556      0.00000      0.01523      0.45750      0.00000      
49000   0.42540    0.02485    0.03460    0.01044      0.35551      0.00000      0.01522      0.45762      0.00000      
49100   0.42532    0.02485    0.03460    0.01047      0.35539      0.00000      0.01529      0.45759      0.00000      
49200   0.42516    0.02482    0.03458    0.01043      0.35532      0.00000      0.01527      0.45814      0.00000      
49300   0.42505    0.02484    0.03458    0.01046      0.35517      0.00000      0.01528      0.45797      0.00000      
49400   0.42496    0.02483    0.03456    0.01041      0.35516      0.00000      0.01528      0.45862      0.00000      
49500   0.42484    0.02484    0.03456    0.01044      0.35500      0.00000      0.01525      0.45764      0.00000      
49600   0.42469    0.02481    0.03454    0.01044      0.35490      0.00000      0.01531      0.45789      0.00000      
49700   0.42461    0.02480    0.03453    0.01042      0.35486      0.00000      0.01530      0.45823      0.00000      
49800   0.42453    0.02479    0.03452    0.01045      0.35477      0.00000      0.01525      0.45779      0.00000      
49900   0.42439    0.02478    0.03452    0.01045      0.35465      0.00000      0.01523      0.45822      0.00000      
50000   0.42420    0.02475    0.03449    0.01040      0.35456      0.00000      0.01523      0.45782      0.00000      
50100   0.42408    0.02474    0.03447    0.01041      0.35446      0.00000      0.01520      0.45764      0.00000      
50200   0.42396    0.02474    0.03445    0.01043      0.35434      0.00000      0.01522      0.45751      0.00000      
50300   0.42386    0.02476    0.03445    0.01044      0.35421      0.00000      0.01514      0.45780      0.00000      
50400   0.42371    0.02474    0.03444    0.01040      0.35414      0.00000      0.01519      0.45820      0.00000      
50500   0.42363    0.02474    0.03444    0.01040      0.35406      0.00000      0.01519      0.45745      0.00000      
50600   0.42354    0.02474    0.03444    0.01037      0.35399      0.00000      0.01516      0.45746      0.00000      
50700   0.42343    0.02472    0.03443    0.01038      0.35390      0.00000      0.01523      0.45722      0.00000      
50800   0.42331    0.02469    0.03441    0.01041      0.35379      0.00000      0.01513      0.45737      0.00000      
50900   0.42317    0.02469    0.03440    0.01040      0.35367      0.00000      0.01516      0.45794      0.00000      
51000   0.42304    0.02469    0.03440    0.01041      0.35355      0.00000      0.01508      0.45722      0.00000      
51100   0.42290    0.02468    0.03440    0.01041      0.35342      0.00000      0.01523      0.45691      0.00000      
51200   0.42280    0.02467    0.03438    0.01042      0.35333      0.00000      0.01522      0.45777      0.00000      
51300   0.42271    0.02467    0.03438    0.01043      0.35322      0.00000      0.01511      0.45745      0.00000      
51400   0.42258    0.02465    0.03437    0.01044      0.35312      0.00000      0.01522      0.45718      0.00000      
51500   0.42254    0.02464    0.03436    0.01041      0.35314      0.00000      0.01520      0.45703      0.00000      
51600   0.42242    0.02464    0.03435    0.01042      0.35301      0.00000      0.01512      0.45772      0.00000      
51700   0.42231    0.02465    0.03435    0.01042      0.35290      0.00000      0.01525      0.45691      0.00000      
51800   0.42221    0.02463    0.03434    0.01042      0.35283      0.00000      0.01518      0.45698      0.00000      
51900   0.42212    0.02462    0.03433    0.01042      0.35276      0.00000      0.01523      0.45717      0.00000      
52000   0.42202    0.02463    0.03433    0.01045      0.35261      0.00000      0.01520      0.45747      0.00000      
52100   0.42191    0.02461    0.03431    0.01040      0.35260      0.00000      0.01522      0.45775      0.00000      
52200   0.42180    0.02460    0.03432    0.01042      0.35246      0.00000      0.01526      0.45747      0.00000      
52300   0.42167    0.02460    0.03430    0.01043      0.35234      0.00000      0.01524      0.45741      0.00000      
52400   0.42161    0.02459    0.03428    0.01038      0.35236      0.00000      0.01529      0.45714      0.00000      
52500   0.42150    0.02456    0.03427    0.01039      0.35227      0.00000      0.01525      0.45732      0.00000      
52600   0.42135    0.02458    0.03426    0.01043      0.35209      0.00000      0.01527      0.45736      0.00000      
52700   0.42127    0.02458    0.03425    0.01044      0.35200      0.00000      0.01531      0.45680      0.00000      
52800   0.42114    0.02456    0.03424    0.01043      0.35190      0.00000      0.01528      0.45708      0.00000      
52900   0.42104    0.02455    0.03423    0.01042      0.35185      0.00000      0.01522      0.45706      0.00000      
53000   0.42097    0.02455    0.03423    0.01042      0.35177      0.00000      0.01523      0.45685      0.00000      
53100   0.42085    0.02455    0.03422    0.01038      0.35171      0.00000      0.01520      0.45727      0.00000      
53200   0.42078    0.02454    0.03420    0.01038      0.35166      0.00000      0.01524      0.45716      0.00000      
53300   0.42065    0.02452    0.03419    0.01036      0.35157      0.00000      0.01519      0.45724      0.00000      
53400   0.42054    0.02452    0.03420    0.01037      0.35145      0.00000      0.01516      0.45757      0.00000      
53500   0.42044    0.02451    0.03418    0.01038      0.35137      0.00000      0.01522      0.45729      0.00000      
53600   0.42037    0.02452    0.03418    0.01038      0.35128      0.00000      0.01517      0.45681      0.00000      
53700   0.42026    0.02450    0.03417    0.01036      0.35123      0.00000      0.01514      0.45715      0.00000      
53800   0.42018    0.02450    0.03416    0.01037      0.35116      0.00000      0.01513      0.45725      0.00000      
53900   0.42004    0.02448    0.03415    0.01036      0.35105      0.00000      0.01511      0.45718      0.00000      
54000   0.41998    0.02448    0.03414    0.01036      0.35101      0.00000      0.01510      0.45704      0.00000      
54100   0.41987    0.02446    0.03413    0.01034      0.35093      0.00000      0.01510      0.45723      0.00000      
54200   0.41977    0.02446    0.03413    0.01040      0.35078      0.00000      0.01507      0.45723      0.00000      
54300   0.41963    0.02446    0.03413    0.01038      0.35066      0.00000      0.01504      0.45658      0.00000      
54400   0.41956    0.02445    0.03412    0.01036      0.35063      0.00000      0.01504      0.45688      0.00000      
54500   0.41950    0.02445    0.03411    0.01034      0.35059      0.00000      0.01507      0.45761      0.00000      
54600   0.41940    0.02445    0.03410    0.01035      0.35049      0.00000      0.01502      0.45688      0.00000      
54700   0.41930    0.02444    0.03410    0.01033      0.35043      0.00000      0.01503      0.45677      0.00000      
54800   0.41923    0.02444    0.03410    0.01033      0.35036      0.00000      0.01507      0.45640      0.00000      
54900   0.41910    0.02442    0.03408    0.01036      0.35024      0.00000      0.01512      0.45660      0.00000      
55000   0.41898    0.02440    0.03406    0.01030      0.35023      0.00000      0.01504      0.45691      0.00000      
55100   0.41892    0.02440    0.03407    0.01031      0.35015      0.00000      0.01506      0.45712      0.00000      
55200   0.41881    0.02439    0.03406    0.01034      0.35001      0.00000      0.01501      0.45668      0.00000      
55300   0.41872    0.02438    0.03405    0.01033      0.34997      0.00000      0.01509      0.45715      0.00000      
55400   0.41865    0.02438    0.03404    0.01032      0.34992      0.00000      0.01504      0.45672      0.00000      
55500   0.41858    0.02437    0.03404    0.01030      0.34987      0.00000      0.01501      0.45684      0.00000      
55600   0.41846    0.02437    0.03403    0.01028      0.34978      0.00000      0.01502      0.45703      0.00000      
55700   0.41843    0.02436    0.03402    0.01032      0.34973      0.00000      0.01504      0.45677      0.00000      
55800   0.41835    0.02436    0.03401    0.01029      0.34969      0.00000      0.01503      0.45727      0.00000      
55900   0.41827    0.02435    0.03401    0.01033      0.34958      0.00000      0.01495      0.45724      0.00000      
56000   0.41818    0.02436    0.03400    0.01027      0.34955      0.00000      0.01496      0.45675      0.00000      
56100   0.41811    0.02435    0.03400    0.01030      0.34947      0.00000      0.01498      0.45699      0.00000      
56200   0.41800    0.02434    0.03400    0.01031      0.34935      0.00000      0.01503      0.45672      0.00000      
56300   0.41792    0.02434    0.03399    0.01029      0.34931      0.00000      0.01494      0.45694      0.00000      
56400   0.41783    0.02432    0.03397    0.01025      0.34928      0.00000      0.01493      0.45700      0.00000      
56500   0.41774    0.02432    0.03397    0.01025      0.34920      0.00000      0.01498      0.45667      0.00000      
56600   0.41767    0.02431    0.03397    0.01026      0.34913      0.00000      0.01493      0.45684      0.00000      
56700   0.41757    0.02431    0.03396    0.01025      0.34905      0.00000      0.01494      0.45663      0.00000      
56800   0.41748    0.02430    0.03394    0.01028      0.34896      0.00000      0.01499      0.45676      0.00000      
56900   0.41740    0.02431    0.03394    0.01026      0.34890      0.00000      0.01497      0.45660      0.00000      
57000   0.41732    0.02428    0.03392    0.01033      0.34878      0.00000      0.01498      0.45638      0.00000      
57100   0.41723    0.02429    0.03391    0.01031      0.34872      0.00000      0.01497      0.45668      0.00000      
57200   0.41716    0.02430    0.03392    0.01029      0.34865      0.00000      0.01496      0.45649      0.00000      
57300   0.41709    0.02429    0.03391    0.01032      0.34857      0.00000      0.01494      0.45599      0.00000      
57400   0.41702    0.02428    0.03389    0.01026      0.34859      0.00000      0.01500      0.45614      0.00000      
57500   0.41693    0.02427    0.03389    0.01030      0.34847      0.00000      0.01497      0.45581      0.00000      
57600   0.41686    0.02426    0.03388    0.01029      0.34843      0.00000      0.01499      0.45603      0.00000      
57700   0.41679    0.02426    0.03387    0.01028      0.34838      0.00000      0.01493      0.45613      0.00000      
57800   0.41671    0.02426    0.03386    0.01024      0.34836      0.00000      0.01496      0.45624      0.00000      
57900   0.41663    0.02425    0.03385    0.01026      0.34826      0.00000      0.01497      0.45592      0.00000      
58000   0.41655    0.02425    0.03385    0.01027      0.34818      0.00000      0.01495      0.45637      0.00000      
58100   0.41648    0.02424    0.03384    0.01026      0.34814      0.00000      0.01496      0.45599      0.00000      
58200   0.41641    0.02425    0.03385    0.01026      0.34805      0.00000      0.01500      0.45592      0.00000      
58300   0.41633    0.02424    0.03384    0.01022      0.34803      0.00000      0.01499      0.45595      0.00000      
58400   0.41624    0.02423    0.03383    0.01024      0.34794      0.00000      0.01497      0.45556      0.00000      
58500   0.41615    0.02422    0.03382    0.01025      0.34787      0.00000      0.01491      0.45592      0.00000      
58600   0.41608    0.02423    0.03381    0.01021      0.34784      0.00000      0.01490      0.45567      0.00000      
58700   0.41602    0.02422    0.03380    0.01021      0.34778      0.00000      0.01502      0.45599      0.00000      
58800   0.41592    0.02421    0.03379    0.01026      0.34766      0.00000      0.01494      0.45558      0.00000      
58900   0.41587    0.02420    0.03379    0.01023      0.34765      0.00000      0.01489      0.45575      0.00000      
59000   0.41579    0.02421    0.03378    0.01024      0.34756      0.00000      0.01494      0.45578      0.00000      
59100   0.41569    0.02420    0.03378    0.01022      0.34750      0.00000      0.01493      0.45566      0.00000      
59200   0.41563    0.02419    0.03377    0.01023      0.34744      0.00000      0.01491      0.45546      0.00000      
59300   0.41554    0.02418    0.03376    0.01022      0.34738      0.00000      0.01487      0.45552      0.00000      
59400   0.41548    0.02418    0.03376    0.01026      0.34728      0.00000      0.01486      0.45543      0.00000      
59500   0.41539    0.02418    0.03375    0.01026      0.34721      0.00000      0.01486      0.45544      0.00000      
59600   0.41533    0.02418    0.03375    0.01022      0.34719      0.00000      0.01491      0.45552      0.00000      
59700   0.41523    0.02418    0.03374    0.01020      0.34711      0.00000      0.01492      0.45530      0.00000      
59800   0.41516    0.02417    0.03374    0.01020      0.34705      0.00000      0.01490      0.45581      0.00000      
59900   0.41508    0.02416    0.03373    0.01022      0.34697      0.00000      0.01485      0.45559      0.00000      
60000   0.41499    0.02415    0.03372    0.01024      0.34688      0.00000      0.01491      0.45562      0.00000      
60100   0.41492    0.02414    0.03371    0.01022      0.34684      0.00000      0.01492      0.45589      0.00000      
60200   0.41484    0.02414    0.03371    0.01022      0.34677      0.00000      0.01493      0.45549      0.00000      
60300   0.41477    0.02413    0.03369    0.01021      0.34674      0.00000      0.01488      0.45542      0.00000      
60400   0.41469    0.02414    0.03369    0.01021      0.34666      0.00000      0.01488      0.45573      0.00000      
60500   0.41461    0.02413    0.03369    0.01020      0.34660      0.00000      0.01488      0.45520      0.00000      
60600   0.41454    0.02413    0.03368    0.01022      0.34652      0.00000      0.01489      0.45536      0.00000      
60700   0.41447    0.02412    0.03367    0.01020      0.34647      0.00000      0.01485      0.45540      0.00000      
60800   0.41439    0.02412    0.03366    0.01020      0.34641      0.00000      0.01491      0.45580      0.00000      
60900   0.41432    0.02411    0.03366    0.01019      0.34637      0.00000      0.01491      0.45527      0.00000      
61000   0.41424    0.02410    0.03365    0.01021      0.34628      0.00000      0.01492      0.45530      0.00000      
61100   0.41417    0.02410    0.03365    0.01019      0.34623      0.00000      0.01491      0.45531      0.00000      
61200   0.41410    0.02411    0.03364    0.01019      0.34616      0.00000      0.01496      0.45547      0.00000      
61300   0.41402    0.02410    0.03364    0.01017      0.34611      0.00000      0.01489      0.45538      0.00000      
61400   0.41396    0.02410    0.03362    0.01016      0.34607      0.00000      0.01491      0.45530      0.00000      
61500   0.41387    0.02410    0.03362    0.01016      0.34600      0.00000      0.01490      0.45542      0.00000      
61600   0.41381    0.02409    0.03362    0.01016      0.34594      0.00000      0.01492      0.45494      0.00000      
61700   0.41374    0.02409    0.03361    0.01019      0.34585      0.00000      0.01491      0.45495      0.00000      
61800   0.41367    0.02409    0.03361    0.01020      0.34576      0.00000      0.01489      0.45551      0.00000      
61900   0.41358    0.02409    0.03360    0.01022      0.34567      0.00000      0.01493      0.45550      0.00000      
62000   0.41349    0.02408    0.03359    0.01020      0.34561      0.00000      0.01493      0.45556      0.00000      
62100   0.41342    0.02408    0.03359    0.01018      0.34556      0.00000      0.01494      0.45536      0.00000      
62200   0.41335    0.02407    0.03358    0.01017      0.34553      0.00000      0.01489      0.45522      0.00000      
62300   0.41326    0.02407    0.03357    0.01015      0.34547      0.00000      0.01494      0.45541      0.00000      
62400   0.41320    0.02406    0.03357    0.01017      0.34541      0.00000      0.01496      0.45530      0.00000      
62500   0.41311    0.02405    0.03355    0.01016      0.34536      0.00000      0.01494      0.45495      0.00000      
62600   0.41305    0.02405    0.03354    0.01016      0.34531      0.00000      0.01493      0.45488      0.00000      
62700   0.41298    0.02405    0.03354    0.01015      0.34524      0.00000      0.01494      0.45499      0.00000      
62800   0.41290    0.02405    0.03354    0.01013      0.34518      0.00000      0.01490      0.45502      0.00000      
62900   0.41282    0.02405    0.03353    0.01014      0.34510      0.00000      0.01491      0.45494      0.00000      
[...]
83800   0.40131    0.02361    0.03275    0.00992      0.33504      0.00000      0.01460      0.45295      0.00000      
83900   0.40127    0.02361    0.03274    0.00992      0.33499      0.00000      0.01460      0.45289      0.00000      
84000   0.40122    0.02361    0.03274    0.00992      0.33495      0.00000      0.01461      0.45297      0.00000      
84100   0.40118    0.02361    0.03273    0.00992      0.33492      0.00000      0.01461      0.45285      0.00000      
84200   0.40113    0.02361    0.03273    0.00992      0.33487      0.00000      0.01460      0.45293      0.00000      
84300   0.40109    0.02361    0.03273    0.00992      0.33483      0.00000      0.01461      0.45289      0.00000      
84400   0.40104    0.02361    0.03273    0.00992      0.33479      0.00000      0.01460      0.45292      0.00000      
84500   0.40100    0.02361    0.03273    0.00992      0.33475      0.00000      0.01459      0.45290      0.00000      
84600   0.40096    0.02360    0.03272    0.00992      0.33472      0.00000      0.01460      0.45287      0.00000      
84700   0.40091    0.02360    0.03272    0.00991      0.33468      0.00000      0.01459      0.45282      0.00000      
84800   0.40087    0.02360    0.03271    0.00991      0.33464      0.00000      0.01459      0.45277      0.00000      
84900   0.40082    0.02360    0.03271    0.00991      0.33460      0.00000      0.01456      0.45290      0.00000      
85000   0.40078    0.02360    0.03271    0.00991      0.33456      0.00000      0.01457      0.45289      0.00000      
85100   0.40073    0.02359    0.03271    0.00990      0.33453      0.00000      0.01457      0.45294      0.00000      
85200   0.40069    0.02359    0.03270    0.00990      0.33449      0.00000      0.01458      0.45291      0.00000      
85300   0.40064    0.02359    0.03270    0.00990      0.33445      0.00000      0.01457      0.45299      0.00000      
85400   0.40060    0.02359    0.03269    0.00989      0.33442      0.00000      0.01458      0.45291      0.00000      
85500   0.40055    0.02359    0.03269    0.00989      0.33438      0.00000      0.01459      0.45290      0.00000      
85600   0.40051    0.02359    0.03269    0.00989      0.33434      0.00000      0.01458      0.45292      0.00000      
85700   0.40047    0.02359    0.03269    0.00989      0.33431      0.00000      0.01457      0.45292      0.00000      
85800   0.40042    0.02359    0.03268    0.00989      0.33426      0.00000      0.01456      0.45289      0.00000      
85900   0.40038    0.02358    0.03268    0.00988      0.33423      0.00000      0.01457      0.45289      0.00000      
86000   0.40033    0.02358    0.03267    0.00988      0.33419      0.00000      0.01456      0.45288      0.00000      
86100   0.40029    0.02358    0.03267    0.00988      0.33415      0.00000      0.01456      0.45287      0.00000      
86200   0.40025    0.02358    0.03266    0.00988      0.33413      0.00000      0.01457      0.45293      0.00000      
86300   0.40021    0.02358    0.03266    0.00989      0.33408      0.00000      0.01456      0.45288      0.00000      
86400   0.40016    0.02357    0.03266    0.00988      0.33405      0.00000      0.01456      0.45284      0.00000      
86500   0.40012    0.02357    0.03265    0.00988      0.33402      0.00000      0.01457      0.45292      0.00000      
86600   0.40008    0.02357    0.03265    0.00988      0.33399      0.00000      0.01456      0.45288      0.00000      
86700   0.40004    0.02357    0.03264    0.00988      0.33395      0.00000      0.01456      0.45294      0.00000      
86800   0.40000    0.02357    0.03264    0.00987      0.33392      0.00000      0.01457      0.45279      0.00000      
86900   0.39996    0.02356    0.03264    0.00987      0.33389      0.00000      0.01456      0.45286      0.00000      
87000   0.39992    0.02356    0.03263    0.00987      0.33386      0.00000      0.01457      0.45282      0.00000      
87100   0.39988    0.02356    0.03263    0.00987      0.33382      0.00000      0.01456      0.45287      0.00000      
87200   0.39984    0.02355    0.03262    0.00988      0.33378      0.00000      0.01456      0.45279      0.00000      
87300   0.39980    0.02355    0.03262    0.00987      0.33375      0.00000      0.01456      0.45287      0.00000      
87400   0.39976    0.02355    0.03262    0.00987      0.33372      0.00000      0.01456      0.45291      0.00000      
87500   0.39972    0.02355    0.03262    0.00987      0.33368      0.00000      0.01456      0.45294      0.00000      
87600   0.39967    0.02355    0.03261    0.00987      0.33365      0.00000      0.01456      0.45294      0.00000      
87700   0.39963    0.02354    0.03261    0.00987      0.33362      0.00000      0.01455      0.45304      0.00000      
87800   0.39959    0.02354    0.03260    0.00987      0.33357      0.00000      0.01457      0.45299      0.00000      
87900   0.39955    0.02354    0.03260    0.00987      0.33354      0.00000      0.01455      0.45294      0.00000      
88000   0.39951    0.02354    0.03260    0.00987      0.33351      0.00000      0.01456      0.45292      0.00000      
88100   0.39947    0.02354    0.03259    0.00986      0.33348      0.00000      0.01456      0.45288      0.00000      
88200   0.39943    0.02354    0.03259    0.00987      0.33343      0.00000      0.01455      0.45281      0.00000      
88300   0.39939    0.02353    0.03259    0.00987      0.33340      0.00000      0.01456      0.45291      0.00000      
88400   0.39935    0.02353    0.03258    0.00986      0.33337      0.00000      0.01455      0.45286      0.00000      
88500   0.39931    0.02353    0.03258    0.00987      0.33333      0.00000      0.01456      0.45285      0.00000      
88600   0.39927    0.02353    0.03258    0.00986      0.33331      0.00000      0.01454      0.45288      0.00000      
88700   0.39923    0.02352    0.03257    0.00986      0.33328      0.00000      0.01455      0.45291      0.00000      
88800   0.39919    0.02352    0.03257    0.00986      0.33324      0.00000      0.01455      0.45300      0.00000      
88900   0.39916    0.02352    0.03257    0.00985      0.33322      0.00000      0.01455      0.45294      0.00000      
89000   0.39912    0.02352    0.03256    0.00984      0.33320      0.00000      0.01455      0.45295      0.00000      
89100   0.39908    0.02352    0.03256    0.00985      0.33316      0.00000      0.01455      0.45293      0.00000      
89200   0.39904    0.02351    0.03256    0.00986      0.33312      0.00000      0.01456      0.45290      0.00000      
89300   0.39900    0.02351    0.03255    0.00985      0.33309      0.00000      0.01455      0.45292      0.00000      
89400   0.39896    0.02351    0.03255    0.00985      0.33306      0.00000      0.01455      0.45296      0.00000      
89500   0.39893    0.02351    0.03254    0.00985      0.33303      0.00000      0.01455      0.45290      0.00000      
89600   0.39889    0.02351    0.03254    0.00985      0.33300      0.00000      0.01454      0.45294      0.00000      
89700   0.39885    0.02350    0.03253    0.00985      0.33297      0.00000      0.01454      0.45294      0.00000      
89800   0.39881    0.02350    0.03253    0.00985      0.33294      0.00000      0.01453      0.45290      0.00000      
89900   0.39878    0.02350    0.03253    0.00985      0.33290      0.00000      0.01454      0.45291      0.00000      
90000   0.39874    0.02350    0.03252    0.00984      0.33288      0.00000      0.01453      0.45294      0.00000      
90100   0.39870    0.02349    0.03252    0.00984      0.33285      0.00000      0.01454      0.45299      0.00000      
90200   0.39867    0.02349    0.03251    0.00984      0.33282      0.00000      0.01454      0.45295      0.00000      
90300   0.39863    0.02349    0.03251    0.00984      0.33279      0.00000      0.01453      0.45300      0.00000      
90400   0.39860    0.02349    0.03251    0.00985      0.33276      0.00000      0.01453      0.45298      0.00000      
90500   0.39856    0.02348    0.03250    0.00984      0.33273      0.00000      0.01453      0.45299      0.00000      
90600   0.39852    0.02348    0.03250    0.00984      0.33271      0.00000      0.01453      0.45305      0.00000      
90700   0.39849    0.02348    0.03250    0.00983      0.33268      0.00000      0.01455      0.45302      0.00000      
90800   0.39845    0.02348    0.03249    0.00984      0.33264      0.00000      0.01452      0.45301      0.00000      
90900   0.39841    0.02347    0.03249    0.00983      0.33262      0.00000      0.01452      0.45301      0.00000      
91000   0.39838    0.02347    0.03248    0.00983      0.33259      0.00000      0.01453      0.45304      0.00000      
91100   0.39834    0.02347    0.03248    0.00984      0.33255      0.00000      0.01452      0.45302      0.00000      
91200   0.39830    0.02347    0.03248    0.00983      0.33253      0.00000      0.01452      0.45299      0.00000      
91300   0.39827    0.02347    0.03248    0.00983      0.33250      0.00000      0.01453      0.45299      0.00000      
91400   0.39823    0.02346    0.03247    0.00983      0.33247      0.00000      0.01453      0.45304      0.00000      
91500   0.39819    0.02346    0.03247    0.00983      0.33244      0.00000      0.01453      0.45294      0.00000      
91600   0.39816    0.02346    0.03247    0.00982      0.33241      0.00000      0.01453      0.45302      0.00000      
91700   0.39812    0.02346    0.03246    0.00982      0.33238      0.00000      0.01452      0.45303      0.00000      
91800   0.39809    0.02346    0.03246    0.00982      0.33235      0.00000      0.01453      0.45301      0.00000      
91900   0.39805    0.02345    0.03246    0.00982      0.33232      0.00000      0.01453      0.45302      0.00000      
92000   0.39801    0.02345    0.03245    0.00982      0.33229      0.00000      0.01452      0.45310      0.00000      
92100   0.39798    0.02345    0.03245    0.00982      0.33226      0.00000      0.01451      0.45306      0.00000      
92200   0.39795    0.02345    0.03245    0.00982      0.33223      0.00000      0.01452      0.45311      0.00000      
92300   0.39791    0.02345    0.03244    0.00982      0.33220      0.00000      0.01452      0.45306      0.00000      
92400   0.39788    0.02344    0.03244    0.00982      0.33217      0.00000      0.01452      0.45308      0.00000      
92500   0.39784    0.02344    0.03244    0.00982      0.33214      0.00000      0.01451      0.45308      0.00000      
92600   0.39781    0.02344    0.03244    0.00982      0.33211      0.00000      0.01451      0.45310      0.00000      
92700   0.39778    0.02344    0.03244    0.00982      0.33208      0.00000      0.01453      0.45314      0.00000      
92800   0.39774    0.02344    0.03243    0.00983      0.33205      0.00000      0.01452      0.45308      0.00000      
92900   0.39771    0.02343    0.03243    0.00982      0.33203      0.00000      0.01451      0.45308      0.00000      
93000   0.39767    0.02343    0.03243    0.00982      0.33200      0.00000      0.01452      0.45309      0.00000      
93100   0.39764    0.02343    0.03242    0.00982      0.33197      0.00000      0.01452      0.45300      0.00000      
93200   0.39761    0.02343    0.03242    0.00982      0.33194      0.00000      0.01450      0.45308      0.00000      
93300   0.39757    0.02343    0.03242    0.00982      0.33191      0.00000      0.01451      0.45306      0.00000      
93400   0.39754    0.02343    0.03242    0.00982      0.33188      0.00000      0.01451      0.45305      0.00000      
93500   0.39750    0.02342    0.03241    0.00982      0.33185      0.00000      0.01451      0.45312      0.00000      
93600   0.39747    0.02342    0.03241    0.00981      0.33183      0.00000      0.01450      0.45317      0.00000      
93700   0.39743    0.02342    0.03241    0.00981      0.33179      0.00000      0.01451      0.45313      0.00000      
93800   0.39740    0.02342    0.03240    0.00981      0.33177      0.00000      0.01452      0.45320      0.00000      
93900   0.39737    0.02341    0.03240    0.00981      0.33174      0.00000      0.01452      0.45316      0.00000      
94000   0.39733    0.02341    0.03240    0.00981      0.33172      0.00000      0.01452      0.45317      0.00000      
94100   0.39730    0.02341    0.03239    0.00981      0.33168      0.00000      0.01452      0.45323      0.00000      
94200   0.39727    0.02341    0.03239    0.00980      0.33167      0.00000      0.01452      0.45326      0.00000      
94300   0.39723    0.02341    0.03239    0.00981      0.33163      0.00000      0.01452      0.45327      0.00000      
94400   0.39720    0.02341    0.03238    0.00980      0.33161      0.00000      0.01451      0.45330      0.00000      
94500   0.39717    0.02340    0.03238    0.00980      0.33158      0.00000      0.01451      0.45328      0.00000      
94600   0.39713    0.02340    0.03238    0.00980      0.33155      0.00000      0.01450      0.45327      0.00000      
94700   0.39710    0.02340    0.03238    0.00980      0.33153      0.00000      0.01451      0.45326      0.00000      
94800   0.39707    0.02340    0.03237    0.00980      0.33150      0.00000      0.01451      0.45328      0.00000      
94900   0.39704    0.02340    0.03237    0.00980      0.33148      0.00000      0.01451      0.45332      0.00000      
95000   0.39701    0.02339    0.03237    0.00980      0.33145      0.00000      0.01450      0.45335      0.00000      
95100   0.39698    0.02339    0.03237    0.00979      0.33142      0.00000      0.01450      0.45328      0.00000      
95200   0.39695    0.02339    0.03236    0.00980      0.33139      0.00000      0.01451      0.45331      0.00000      
95300   0.39691    0.02339    0.03236    0.00979      0.33137      0.00000      0.01451      0.45330      0.00000      
95400   0.39688    0.02339    0.03236    0.00979      0.33134      0.00000      0.01451      0.45334      0.00000      
95500   0.39685    0.02339    0.03236    0.00979      0.33132      0.00000      0.01451      0.45337      0.00000      
95600   0.39682    0.02339    0.03235    0.00979      0.33129      0.00000      0.01451      0.45333      0.00000      
95700   0.39679    0.02338    0.03235    0.00978      0.33127      0.00000      0.01450      0.45337      0.00000      
95800   0.39675    0.02338    0.03235    0.00979      0.33124      0.00000      0.01451      0.45341      0.00000      
95900   0.39672    0.02338    0.03234    0.00979      0.33121      0.00000      0.01451      0.45334      0.00000      
96000   0.39669    0.02338    0.03234    0.00979      0.33119      0.00000      0.01451      0.45338      0.00000      
96100   0.39666    0.02338    0.03234    0.00979      0.33116      0.00000      0.01451      0.45336      0.00000      
96200   0.39663    0.02337    0.03233    0.00979      0.33113      0.00000      0.01450      0.45334      0.00000      
96300   0.39660    0.02337    0.03233    0.00979      0.33111      0.00000      0.01450      0.45337      0.00000      
96400   0.39657    0.02337    0.03233    0.00978      0.33108      0.00000      0.01450      0.45333      0.00000      
96500   0.39654    0.02337    0.03233    0.00979      0.33105      0.00000      0.01449      0.45336      0.00000      
96600   0.39651    0.02337    0.03232    0.00979      0.33103      0.00000      0.01449      0.45338      0.00000      
96700   0.39648    0.02337    0.03232    0.00978      0.33101      0.00000      0.01449      0.45336      0.00000      
96800   0.39645    0.02337    0.03232    0.00978      0.33098      0.00000      0.01449      0.45340      0.00000      
96900   0.39642    0.02336    0.03231    0.00978      0.33096      0.00000      0.01450      0.45334      0.00000      
97000   0.39638    0.02336    0.03231    0.00978      0.33093      0.00000      0.01450      0.45336      0.00000      
97100   0.39636    0.02336    0.03231    0.00978      0.33091      0.00000      0.01450      0.45337      0.00000      
97200   0.39633    0.02336    0.03231    0.00978      0.33089      0.00000      0.01448      0.45333      0.00000      
97300   0.39630    0.02336    0.03230    0.00978      0.33086      0.00000      0.01449      0.45333      0.00000      
97400   0.39627    0.02335    0.03230    0.00979      0.33083      0.00000      0.01448      0.45334      0.00000      
97500   0.39624    0.02335    0.03230    0.00978      0.33081      0.00000      0.01447      0.45336      0.00000      
97600   0.39621    0.02335    0.03229    0.00978      0.33078      0.00000      0.01448      0.45331      0.00000      
97700   0.39618    0.02335    0.03229    0.00978      0.33076      0.00000      0.01448      0.45327      0.00000      
97800   0.39615    0.02335    0.03229    0.00978      0.33073      0.00000      0.01447      0.45329      0.00000      
97900   0.39612    0.02334    0.03228    0.00978      0.33071      0.00000      0.01448      0.45332      0.00000      
98000   0.39609    0.02334    0.03228    0.00978      0.33068      0.00000      0.01448      0.45328      0.00000      
98100   0.39606    0.02334    0.03228    0.00979      0.33065      0.00000      0.01448      0.45327      0.00000      
98200   0.39603    0.02334    0.03228    0.00978      0.33063      0.00000      0.01448      0.45326      0.00000      
98300   0.39600    0.02334    0.03227    0.00978      0.33061      0.00000      0.01447      0.45329      0.00000      
98400   0.39597    0.02334    0.03227    0.00978      0.33058      0.00000      0.01447      0.45327      0.00000      
98500   0.39594    0.02333    0.03227    0.00978      0.33056      0.00000      0.01447      0.45333      0.00000      
98600   0.39591    0.02333    0.03227    0.00978      0.33053      0.00000      0.01447      0.45329      0.00000      
98700   0.39588    0.02333    0.03226    0.00977      0.33051      0.00000      0.01447      0.45336      0.00000      
98800   0.39585    0.02333    0.03226    0.00978      0.33048      0.00000      0.01447      0.45340      0.00000      
98900   0.39582    0.02333    0.03226    0.00978      0.33045      0.00000      0.01447      0.45334      0.00000      
99000   0.39579    0.02333    0.03225    0.00978      0.33043      0.00000      0.01447      0.45336      0.00000      
99100   0.39576    0.02332    0.03225    0.00978      0.33040      0.00000      0.01447      0.45334      0.00000      
99200   0.39573    0.02332    0.03225    0.00978      0.33038      0.00000      0.01446      0.45338      0.00000      
99300   0.39570    0.02332    0.03225    0.00977      0.33036      0.00000      0.01446      0.45341      0.00000      
99400   0.39567    0.02332    0.03224    0.00977      0.33033      0.00000      0.01446      0.45334      0.00000      
99500   0.39564    0.02332    0.03224    0.00977      0.33031      0.00000      0.01446      0.45333      0.00000      
99600   0.39561    0.02332    0.03224    0.00977      0.33029      0.00000      0.01445      0.45338      0.00000      
99700   0.39558    0.02332    0.03223    0.00977      0.33026      0.00000      0.01446      0.45336      0.00000      
99800   0.39555    0.02331    0.03223    0.00977      0.33024      0.00000      0.01446      0.45338      0.00000      
99900   0.39553    0.02331    0.03223    0.00977      0.33022      0.00000      0.01446      0.45337      0.00000      
100000  0.39550    0.02331    0.03223    0.00977      0.33020      0.00000      0.01446      0.45337      0.00000      

---------------------------------------------------------------
Time used for training = 3686.942871 s.
---------------------------------------------------------------


---------------------------------------------------------------
Finished running nep.
---------------------------------------------------------------

