40
Lattice="8.018123690989786 0.0 0.0 0.0 8.01812369098979 0.0 0.0 0.0 8.01812369098979" Properties=species:S:1:pos:R:3:forces:R:3:stresses:R:9 energy=-593.0025575052657 stress="-0.0002745850136805398 -2.7558905149216033e-05 -5.364119716925704e-06 -2.7558905149216033e-05 -0.0004477522160168138 1.4565502640103998e-05 -5.364119716925704e-06 1.4565502640103998e-05 -0.0006305332836682747" pbc="T T T"
Ba       0.00496714      -0.00138264       0.00647689      -0.13842228       0.09458108       0.03540506       0.01111516       0.00011446       0.00024063       0.00011692       0.01102611      -0.00023613       0.00024205      -0.00023519       0.01109779
Ti       2.01976122       2.00218939       2.00218955      -0.29984588       0.23611957       0.24071070      -0.00305257       0.00012438      -0.00009007       0.00013827      -0.00298032      -0.00002551      -0.00008010      -0.00003293      -0.00263455
O        2.02032305       2.01220527       4.00436711      -0.09337810      -0.05970416      -0.12162939      -0.00140015       0.00001452       0.00015270       0.00003526      -0.00132637      -0.00014430       0.00011335      -0.00014732      -0.00583411
O        2.00995652      -0.00463418       1.99987362      -0.06336888       0.09061475      -0.00771576      -0.00132565      -0.00012475      -0.00001811      -0.00006378      -0.00564816       0.00004068      -0.00002078       0.00003942      -0.00155402
O        4.01148147       1.98539812       1.98728174      -0.09119399       0.13336556       0.07243407      -0.00560207      -0.00005770      -0.00025280      -0.00007487      -0.00123141       0.00002087      -0.00027971       0.00002181      -0.00134178
Ba      -0.00562288      -0.01012831       4.01220432       0.12802635       0.09898833      -0.12033770       0.01096641       0.00000148      -0.00011605       0.00000385       0.01075714       0.00018305      -0.00011631       0.00017886       0.01096280
Ti       1.99545068       1.99040788       6.02824925       0.13675711      -0.02545907      -0.18153047      -0.00259738      -0.00006991       0.00013087      -0.00006394      -0.00194422      -0.00002180       0.00012913      -0.00002935      -0.00270388
O        2.00227316       2.00520620       8.00387621       0.06661636      -0.00112287       0.01414199      -0.00111575      -0.00002345      -0.00015038      -0.00001394      -0.00148832       0.00010332      -0.00013497       0.00009735      -0.00571020
O        1.99908709       0.00110923       6.00208283       0.01352236      -0.02269849       0.07003385      -0.00145176      -0.00001377      -0.00002454       0.00000347      -0.00588923       0.00002703      -0.00003564       0.00003961      -0.00138962
O        4.01281883       1.99852453       6.01067583       0.01136731       0.00340593       0.00832309      -0.00566455       0.00007389       0.00015974       0.00009246      -0.00154572      -0.00000650       0.00018592       0.00000095      -0.00121951
Ba      -0.00601707       4.02758463      -0.00013497      -0.02369138      -0.23905618       0.05303048       0.01103278      -0.00002603      -0.00017693      -0.00002192       0.01122082       0.00007304      -0.00018089       0.00007903       0.01103886
Ti       1.99395381       6.02181821       1.99232248       0.12639475      -0.25142865       0.25144303      -0.00255677      -0.00005411       0.00005278      -0.00004828      -0.00268492       0.00007605       0.00007173       0.00007230      -0.00197913
O        2.00661956       5.99399606       3.99577999      -0.04639385       0.17610363       0.24776136      -0.00163622       0.00004748       0.00003054       0.00005435      -0.00126256       0.00006256       0.00003065       0.00005880      -0.00584191
O        2.00649953       4.01644651       2.00624460       0.04612073      -0.20252673      -0.10147496      -0.00125756       0.00020618      -0.00001141       0.00021986      -0.00554081      -0.00002069      -0.00001114      -0.00001606      -0.00133445
O        4.00790537       6.01058173       1.98974570       0.09380073       0.02635112       0.08897311      -0.00546381       0.00016606      -0.00024156       0.00015961      -0.00129264       0.00000504      -0.00026568      -0.00000533      -0.00151983
Ba      -0.00719844       4.00445546       4.01963307       0.14596782      -0.03767949      -0.15627614       0.01089132       0.00010445       0.00015651       0.00010830       0.01100679      -0.00002932       0.00015521      -0.00003182       0.01082960
Ti       2.00796710       5.99596236       6.01683361       0.03215859       0.00605642      -0.21225656      -0.00179993       0.00007031       0.00001160       0.00006207      -0.00245163      -0.00003049       0.00001632      -0.00001488      -0.00271301
O        2.00068010       6.00682355       8.02424046      -0.02486678       0.07949380      -0.22373585      -0.00139325       0.00000736       0.00001912       0.00000237      -0.00135856      -0.00002890       0.00001366      -0.00002661      -0.00570834
O        2.01484092       4.01837465       6.00520059      -0.10941019       0.09445163       0.08525348      -0.00150449       0.00002838      -0.00001372       0.00005631      -0.00603681      -0.00006241      -0.00002158      -0.00006758      -0.00117880
O        4.00596973       6.01690540       6.02334822      -0.01788634       0.01568263      -0.04794377      -0.00617310       0.00003812       0.00003780      -0.00000393      -0.00134905      -0.00002059       0.00006926      -0.00001982      -0.00143949
Ba       4.00427010      -0.00185659      -0.01106335       0.11102687       0.02031750       0.08725182       0.01114974      -0.00016231      -0.00027572      -0.00016483       0.01116045       0.00017400      -0.00027580       0.00017077       0.01129529
Ti       6.00163070       2.01265618       2.01809332       0.29095138      -0.05745464      -0.32414074      -0.00271333      -0.00009518       0.00005366      -0.00011297      -0.00270733       0.00006532       0.00005821       0.00007222      -0.00254746
O        6.01287266       2.01456625       4.01267821       0.01362016      -0.09518042      -0.01879486      -0.00136679      -0.00003559      -0.00019309      -0.00004753      -0.00145722       0.00012526      -0.00016406       0.00013960      -0.00565106
O        6.00714157       0.00361396       2.01991129       0.05626619      -0.05214944      -0.04941400      -0.00134111       0.00010236       0.00002028       0.00004009      -0.00551448       0.00002782       0.00002697       0.00002382      -0.00155808
O        8.01776544       2.02017736       1.97833347       0.09588710      -0.13579294       0.19311872      -0.00565249       0.00004624       0.00017905       0.00008291      -0.00131044      -0.00003192       0.00023528      -0.00001794      -0.00139113
Ba       4.01728087       0.00087047       4.00607177      -0.15850818      -0.02584301      -0.02011837       0.01110050      -0.00006233       0.00014477      -0.00006462       0.01096410      -0.00025461       0.00014374      -0.00025859       0.01112701
Ti       6.01451037       1.98465523       6.01139605      -0.16512183       0.23948177       0.32147411      -0.00255785       0.00001440      -0.00006968       0.00002349      -0.00183331      -0.00001075      -0.00008170       0.00000795      -0.00299339
O        6.01716389       2.01930986       8.01294099      -0.04935302      -0.14111230      -0.08647704      -0.00127824       0.00000404       0.00018711       0.00000383      -0.00146637      -0.00003641       0.00017598       0.00001258      -0.00555348
O        6.00550783      -0.00501757       6.02274679       0.06565721       0.04427767      -0.08214192      -0.00145481      -0.00011891       0.00002402      -0.00014905      -0.00591755       0.00015440       0.00003048       0.00015299      -0.00142095
O        8.02141121       1.99923332       6.01872544       0.01161982      -0.00060602      -0.08283639      -0.00582865      -0.00018906      -0.00009500      -0.00015607      -0.00162313       0.00004073      -0.00014520       0.00003356      -0.00118080
Ba       4.01003262       4.01874830      -0.00702053       0.04527298      -0.12462421       0.03104567       0.01109879       0.00007765       0.00022835       0.00007488       0.01119887      -0.00024926       0.00023014      -0.00024311       0.01112026
Ti       6.01031614       6.00967168       1.98989577      -0.09708634       0.13629660      -0.15124216      -0.00280276       0.00004658      -0.00009240       0.00004355      -0.00278291      -0.00003102      -0.00010166      -0.00005020      -0.00178108
O        6.01655397       6.01620332       4.00911298      -0.03587496      -0.02598449       0.22043418      -0.00146021      -0.00002508       0.00004287      -0.00004219      -0.00137910      -0.00019429       0.00005188      -0.00020704      -0.00587937
O        6.01124689       3.99490814       2.00032447      -0.05977759       0.14716922       0.11133379      -0.00126502      -0.00018811       0.00000950      -0.00020771      -0.00555516      -0.00001819       0.00001461      -0.00000736      -0.00141870
O        8.01469655       6.00556999       2.00291806      -0.00427929       0.06344773       0.02114865      -0.00556987      -0.00016058       0.00019594      -0.00016596      -0.00132689      -0.00003877       0.00023866      -0.00003473      -0.00157826
Ba       4.01310235       4.02792370       4.01080762      -0.12295180      -0.15585609      -0.03321937       0.01108252      -0.00003831      -0.00021029      -0.00004110       0.01108094       0.00034466      -0.00020624       0.00034539       0.01091616
Ti       6.01616827       6.01284831       5.99440505       0.02590173      -0.18221733       0.06744366      -0.00185718      -0.00000839       0.00002412      -0.00001725      -0.00242341      -0.00002901       0.00000833      -0.00003298      -0.00222363
O        6.01332763       6.01419507       8.04275612       0.00585839       0.01131844      -0.14241694      -0.00141339       0.00001138      -0.00009146       0.00000765      -0.00133200       0.00010474      -0.00009457       0.00005895      -0.00584306
O        6.01166916       4.01207732       6.01324565       0.01702642       0.16898651      -0.01568258      -0.00146908       0.00010366       0.00001862       0.00008756      -0.00595043      -0.00015879       0.00002196      -0.00016762      -0.00125750
O        8.00643692       6.02502099       6.02111210       0.06159035      -0.05001337      -0.04137583      -0.00613683       0.00007775       0.00000797       0.00007043      -0.00135701       0.00003652      -0.00004212       0.00002592      -0.00137668
