16
Lattice="4.211727546948275e-17 3.5782098216128166 3.578209821612817 3.5782098216128166 -5.848158889127027e-16 3.578209821612817 3.5782098216128166 3.578209821612816 -2.5587829850584747e-15" Properties=species:S:1:pos:R:3:forces:R:3:stresses:R:9 energy=-126.5935653119594 stress="-0.0008722442049623665 0.0004146245054456496 0.00012857192772025897 0.0004146245054456496 -0.0004644933944051585 -0.00046260440477863675 0.00012857192772025897 -0.00046260440477863675 -0.0005275893441980542" pbc="T T T"
C        0.00496714      -0.00138264       0.00647689       0.10774768      -0.21843329      -0.24637789      -0.00004661       0.00063067       0.00005113       0.00097831      -0.00072430       0.00059751      -0.00099061      -0.00003346       0.00160287
C        0.90978275       0.89221092       0.89221109      -0.43919063       0.14787531      -0.19615843      -0.00215597       0.00035190       0.00133371       0.00026097      -0.00146096      -0.00046930       0.00144480      -0.00022629       0.00119770
C        1.80489704       1.79677926      -0.00469474      -0.58987198      -0.14284561       0.00517293       0.00077049      -0.00059724       0.00027537      -0.00015833      -0.00002522       0.00196037      -0.00029680       0.00229661       0.00007999
C        2.68908297       2.67902319       0.88989516      -0.12097016       0.32457064       0.41206320       0.00066456       0.00268702      -0.00039624       0.00170786      -0.00205975      -0.00084847       0.00134247      -0.00070397      -0.00051499
C        1.79152453      -0.01913280       1.77185573      -0.09466467       0.67461854       0.50880955       0.00012811      -0.00154092      -0.00192064      -0.00209597       0.00090277      -0.00067086      -0.00101931       0.00043649       0.00158467
C        2.67803449       0.88442414       2.68679984       0.19233097      -0.21201080      -0.06220965       0.00034366      -0.00145072      -0.00155806      -0.00057188       0.00029155      -0.00015541      -0.00103679       0.00005126       0.00040856
C        3.56912958       1.77498187       1.80376140       0.16096910       0.38137386      -0.61415288       0.00009814       0.00117983      -0.00055244       0.00092121       0.00056274       0.00023257      -0.00075390       0.00022882       0.00006786
C        4.47050451       2.68433265       2.66940988       0.04258968      -0.24430810       0.45837470      -0.00121866       0.00089057       0.00072974       0.00110015       0.00071870       0.00123686      -0.00030790      -0.00060298      -0.00045693
C       -0.00544383       1.79021414       1.77759498       0.48893690       0.02570810       0.21027396      -0.00118856       0.00064573       0.00057116       0.00034134      -0.00090279      -0.00121958       0.00152865      -0.00134002       0.00172630
C        0.89830944       2.67765098       2.68074043      -0.13163571       0.13083450      -0.00245251      -0.00038965      -0.00000948       0.00034028      -0.00018626      -0.00203162      -0.00033106      -0.00020300       0.00102371       0.00098127
C        1.78308784       3.59673260       1.78896994       0.12421990      -0.95898092      -0.10138984       0.00149597      -0.00029950       0.00301150       0.00087881      -0.00026745      -0.00141372       0.00276068      -0.00177508       0.00069564
C        2.67308026       4.48098773       2.67144893       0.56513271      -0.12906192       0.21037697       0.00135936       0.00122955      -0.00064633       0.00028728       0.00105312       0.00191054      -0.00150900       0.00193522       0.00049990
C        1.79119355       1.76950821       3.56492796      -0.29441118       0.63511744       0.59326707       0.00045283      -0.00091165      -0.00086538      -0.00175184      -0.00030063       0.00092277      -0.00100885      -0.00017897      -0.00174951
C        2.68562598       2.69104203       4.47447596       0.03120220      -0.71863811      -0.82340215       0.00114503      -0.00196983      -0.00085803      -0.00112482       0.00107925      -0.00018575      -0.00100313      -0.00055447       0.00002503
C        3.57705334       3.57519878       3.56342460      -0.06397742       0.23117078       0.32803708      -0.00122008       0.00065791      -0.00069378       0.00067679       0.00101227      -0.00015735      -0.00033856       0.00056446      -0.00366264
C        4.46556383       4.46815589       4.48333350       0.02159262       0.07300958      -0.68023210       0.00063365      -0.00190847       0.00104945      -0.00167823       0.00261681      -0.00094653       0.00126267      -0.00065874      -0.00195812
