450
Lattice="15.63880594 0.0 0.0 0.0 15.63880594 0.0 0.0 0.0 15.63880594" Properties=species:S:1:pos:R:3:vel:R:3:mass:R:1 Time=116500.00000187 energy=-1913.94863212 virial="-9.52886229 1.62925283 -2.56385841 1.62925283 -11.03024659 -5.61148879 -2.56385841 -5.61148879 -13.92825381" stress="0.00055024 0.00042597 -0.00067032 0.00042597 0.0001577 -0.00146713 -0.00067032 -0.00146713 -0.00059999" pbc="T T T"
O       14.17607313      14.07351168       0.37457128       0.00119758      -0.00027848      -0.00014691      15.99900000
H       14.22288562      13.35416487       1.06696184       0.00499899      -0.00513562       0.00526039       1.00800000
H       14.27139570      13.61050005      15.04480313      -0.00502430       0.01170263      -0.01147668       1.00800000
O       12.16128714       0.05807012       0.05820629       0.00755023       0.00207427      -0.00186262      15.99900000
H       11.93345935       0.15887200      14.73212124      -0.01282587       0.01459074       0.00045079       1.00800000
H       12.93494995      15.05550530       0.17169616       0.04021691      -0.01480575       0.02107360       1.00800000
O       12.08838002       1.82042477      10.20720115       0.00193090      -0.00043673      -0.00628601      15.99900000
H       11.49592849       2.31899525      10.83774606      -0.01106756       0.00605098       0.00775390       1.00800000
H       12.64837328       1.29938634      10.75719117       0.01845611      -0.03931090       0.02030278       1.00800000
O        5.53943656       2.17337540      11.16402863       0.00182066      -0.00487090       0.00349548      15.99900000
H        4.77184808       1.76569126      11.53668205      -0.00317984       0.00130802      -0.00373511       1.00800000
H        6.00598538       2.44533465      12.01768085      -0.02159172       0.01320702       0.00748908       1.00800000
O        0.64780883      13.44614326       2.93033033      -0.00188931      -0.00085297      -0.00232769      15.99900000
H       15.34328073      13.11200853       2.85823225       0.00619755      -0.00377585       0.02079511       1.00800000
H        0.72195713      13.96218003       2.06612195       0.02217944      -0.02198778      -0.02245094       1.00800000
O       13.16521406       2.65365505      15.22910780      -0.00026565       0.00198254       0.00281369      15.99900000
H       13.00717942       1.64512421      15.36969390       0.00596654      -0.04198971      -0.01177323       1.00800000
H       12.42208694       3.09384223       0.10644405      -0.00573657      -0.00662674      -0.00443505       1.00800000
O        2.04023548       3.98854505       6.12349899      -0.00272120      -0.00374459       0.00571433      15.99900000
H        2.26998221       3.73053070       7.07547029      -0.01528888      -0.01288651       0.00799671       1.00800000
H        1.53631356       3.21147390       5.68517480      -0.00123756      -0.02216664       0.00126607       1.00800000
O        1.22686906       7.44238086      10.78837299      -0.00232402       0.00942492       0.00567335      15.99900000
H        0.68984986       7.43503889      11.61516327      -0.02086268       0.00524176       0.00531250       1.00800000
H        2.05357512       7.97810391      10.93038525      -0.00567993       0.01661179       0.03815547       1.00800000
O        2.80377706       3.51769352       0.33030724       0.00470037       0.00185030       0.00113384      15.99900000
H        3.48469904       2.82633451       0.16336857      -0.00799476       0.00501489      -0.00334286       1.00800000
H        3.30035245       4.33524766       0.59935376       0.00679083      -0.00386693       0.00959535       1.00800000
O       13.78906989       6.24905858       0.46201847      -0.00218518      -0.00463327      -0.00546046      15.99900000
H       13.36686247       5.98865876      15.22583541      -0.00047452       0.03078715       0.01078669       1.00800000
H       12.93332131       6.53471207       0.98294223      -0.01127761      -0.00042857       0.01925767       1.00800000
O        0.03760112       0.48802942       1.13560343      -0.00879587      -0.00507488       0.00033375      15.99900000
H       15.16069300      15.28280137       1.26827913      -0.00571753      -0.00029524       0.01785793       1.00800000
H        1.04431031       0.41989650       1.27035269       0.01474540       0.02585598      -0.00789079       1.00800000
O        1.26895498       8.33889968       6.20194510      -0.00293428      -0.00518553      -0.00367701      15.99900000
H        1.23931664       9.24626701       5.85368261       0.01933909      -0.00443086       0.00701383       1.00800000
H        0.68556382       8.39451299       7.00889983      -0.02210235       0.00364957       0.00736678       1.00800000
O       13.27316647       8.53271300       9.52582780       0.00047645       0.00106869      -0.00170316      15.99900000
H       13.28207281       7.56352369       9.67233265       0.00979556      -0.01508580      -0.01963251       1.00800000
H       13.51747591       9.05219926      10.31075999      -0.01303567       0.03146932       0.00051432       1.00800000
O       13.25125093      10.45828927      11.54700843      -0.00358106       0.00584885      -0.00285019      15.99900000
H       12.30461522      10.58855287      11.83039959      -0.00937228      -0.00005482      -0.02825664       1.00800000
H       13.74209008      10.37744077      12.36771056       0.04472217      -0.01254442      -0.00219508       1.00800000
O        8.56457775       7.93139628       0.02379574      -0.00961279       0.00070950      -0.00467575      15.99900000
H        9.45034897       7.75407299       0.45264884       0.01440824       0.00806036       0.01191827       1.00800000
H        8.43906110       8.91025349       0.17070069       0.00486418       0.02602497       0.02002242       1.00800000
O       12.32149256       8.84110171       6.44858259       0.00708351      -0.00588532       0.00700162      15.99900000
H       12.95078185       8.99166386       5.64054490      -0.00386410       0.01076885      -0.00657327       1.00800000
H       11.87922628       9.69459343       6.69050383      -0.00226116       0.02455579       0.02448946       1.00800000
O        6.92321388      12.29738037      12.15985321      -0.00882245       0.00246347      -0.00559499      15.99900000
H        6.82683620      12.34840725      11.20585671       0.00049058       0.02791499       0.03447837       1.00800000
H        7.54739901      13.04267041      12.37857520      -0.00082955      -0.01144645      -0.00936880       1.00800000
O        1.92692170      12.16791448      15.38427743      -0.00127619      -0.00054144       0.00007292      15.99900000
H        1.28303032      12.79436952      15.01288303       0.02625430       0.00490237       0.00945994       1.00800000
H        2.54343274      12.78467640       0.19538726       0.00477429       0.00405819       0.00528981       1.00800000
O        1.15023522      12.19629852       5.19410264       0.00043523       0.00567382       0.00209447      15.99900000
H        0.35388645      11.89529141       5.75340912       0.01183377      -0.00260861      -0.00578244       1.00800000
H        1.92696806      11.84774965       5.72353151       0.03574849       0.00080352      -0.00841588       1.00800000
O        9.51166665      12.62072736       9.53805228       0.00235811      -0.00652905      -0.00535507      15.99900000
H        8.57161597      12.53018174       9.52589739       0.00022641       0.01180405      -0.02399214       1.00800000
H        9.73707632      13.56211016       9.65215311      -0.00606490      -0.01223257      -0.00802081       1.00800000
O        0.19975300      15.62784418       9.90857838      -0.00037569       0.00557103       0.00357255      15.99900000
H        0.26361364       1.01639862       9.79174198       0.01042077       0.03312062       0.00890009       1.00800000
H        0.02760029      15.16775944       9.02455780       0.02501679       0.00111062      -0.00491394       1.00800000
O        3.44168044      11.28189968       9.17959012      -0.00126770      -0.00487969      -0.00057226      15.99900000
H        3.62222577      10.50064681       9.79796091       0.03978098       0.01300624      -0.01682190       1.00800000
H        3.68010291      12.03130542       9.76508022      -0.00986957       0.00194421      -0.01809369       1.00800000
O        2.38542545       8.26891347       3.27178060       0.00591091       0.00330178      -0.00709391      15.99900000
H        2.80852030       8.09686358       4.17555271       0.01418062       0.01902113       0.00996670       1.00800000
H        1.83701470       9.11750443       3.34413943      -0.01035753      -0.00381330      -0.01165001       1.00800000
O       13.42411661      13.07986579       2.79634701      -0.00014572       0.00276615      -0.00420125      15.99900000
H       12.53154684      12.80512849       2.39870531      -0.00710990      -0.01037236       0.00857492       1.00800000
H       13.35838961      12.77990609       3.73274366      -0.00679969      -0.00449007      -0.01377965       1.00800000
O        5.46804296       9.46712542       5.86455719       0.00358529      -0.00148898      -0.00084418      15.99900000
H        4.89836803       8.67342056       5.74283844      -0.02759646       0.02618636       0.00238943       1.00800000
H        5.72632274       9.39824246       6.81985818       0.01361402       0.00832845       0.00718639       1.00800000
O       15.35791154      10.74474515      13.56153016      -0.00296237       0.00869241      -0.00244721      15.99900000
H        0.24392961       9.98877562      13.85689500       0.01856793      -0.00116881       0.00082169       1.00800000
H        0.33582942      11.29086398      13.00454506       0.01430951      -0.01120149       0.01784282       1.00800000
O        2.79919130       0.47225446       1.51703743      -0.00439690       0.00620905       0.00758119      15.99900000
H        3.34414373       0.95426092       0.81402442       0.01315067       0.00583170      -0.00386232       1.00800000
H        2.68248919       1.19120786       2.30544517       0.01394618       0.01119957      -0.00407732       1.00800000
O        0.49959917       2.07293917       4.88556464       0.00244368       0.00067122       0.00386055      15.99900000
H       15.21532646       2.43126603       4.73139802      -0.02934501      -0.00839034       0.00133842       1.00800000
H        1.01705925       2.19476379       4.02640307      -0.00519324       0.00017738       0.00240946       1.00800000
O        6.01689173      14.99146901      15.52483438      -0.00063167      -0.00873506       0.00412694      15.99900000
H        5.73727440      14.38455913      14.82115203       0.00362132       0.01349522       0.01500153       1.00800000
H        7.07239469      14.88654688      15.45397376       0.00579874      -0.01481498       0.02738265       1.00800000
O        3.66714541      13.67626012       1.14213634       0.00312155      -0.01252323       0.00195266      15.99900000
H        3.41774232      14.64835838       1.22043930       0.00573321       0.00497903       0.01790940       1.00800000
H        4.59804632      13.58891227       0.78307527      -0.00340988       0.01043030       0.01059733       1.00800000
O        5.62317250      15.43788397       4.26523425      -0.00296877      -0.00050405       0.00709270      15.99900000
H        6.19237484      15.13976799       5.07223286      -0.00600088      -0.03202881      -0.00449584       1.00800000
H        5.86498701      14.90209602       3.53195024      -0.01672292      -0.01608279       0.00286988       1.00800000
O        3.93819548       4.88343299       4.51339657      -0.00060301      -0.00163824      -0.00239761      15.99900000
H        3.51358104       4.92735372       3.53056961       0.00002325       0.00598917       0.00348685       1.00800000
H        3.28504157       4.38208205       5.03330657       0.03224209      -0.01454192      -0.02936169       1.00800000
O        0.09190085       7.38814623      13.19732172      -0.00050730      -0.00307381      -0.00648124      15.99900000
H        0.81559131       7.06248216      13.86695471      -0.01326043       0.00511883       0.02282222       1.00800000
H       15.25848484       8.12999621      13.62573783       0.01026203       0.02088684       0.00043193       1.00800000
O        4.40092783       1.39230145      15.04194120       0.00218632      -0.00050020      -0.00164650      15.99900000
H        5.04344058       0.65232597      15.27023365      -0.02067028       0.00366534      -0.00080546       1.00800000
H        4.05802052       1.14765480      14.16472526       0.00640570       0.00733304      -0.00298994       1.00800000
O        2.54424778       2.59608536       2.99728284       0.00114418      -0.01184205      -0.00749094      15.99900000
H        3.46427716       2.74333713       3.40957634       0.00711672      -0.01651491       0.00131467       1.00800000
H        2.57327693       2.92158846       2.07684274       0.00763274      -0.01445138       0.02300207       1.00800000
O       15.63645190       8.83847348       8.49485447       0.00455454      -0.00047094       0.00133051      15.99900000
H        0.42881922       8.52507436       9.29361839      -0.01139229       0.00020471      -0.01306828       1.00800000
H       14.63508165       8.75110842       8.65691435      -0.00190162      -0.04360478      -0.00370391       1.00800000
O        4.34364523       8.22182408       1.60406904       0.00320700      -0.00301856       0.00140292      15.99900000
H        5.15217361       8.45653523       2.14414494      -0.00650251       0.02989735      -0.00048094       1.00800000
H        3.58225718       8.55912079       2.17609065      -0.02463517      -0.00999966      -0.00970004       1.00800000
O       15.20876250       5.15035615       2.43703520      -0.00716300      -0.00123804       0.00374524      15.99900000
H       15.16768343       4.15407591       2.21626615       0.00673985       0.00008817       0.02999670       1.00800000
H       14.85675733       5.56069272       1.58672345       0.00451123       0.00353398       0.00823982       1.00800000
O        6.88123289      12.13530530       9.59817110      -0.00221308      -0.00416224       0.00137511      15.99900000
H        6.63532517      11.20755156       9.21703960      -0.00854359      -0.01459554      -0.01156291       1.00800000
H        6.22857025      12.81935890       9.25808324       0.00269508      -0.01034695      -0.00696141       1.00800000
O        6.42178748       9.70544830       8.45390061      -0.00390998      -0.00213300       0.00015658      15.99900000
H        7.41985494       9.50177809       8.25052196      -0.00435417      -0.01703195      -0.01000129       1.00800000
H        6.06939291       9.00862242       9.00780077       0.00668625      -0.00718773      -0.00426133       1.00800000
O        3.38217502       9.19498434      10.84316982      -0.00188470      -0.00027628       0.00133812      15.99900000
H        4.16625557       8.59412836      10.53448143      -0.01221212       0.01044034      -0.01276723       1.00800000
H        3.62259234       9.44906059      11.73615771      -0.01348307      -0.00978636       0.00948059       1.00800000
O       14.00478896       8.93591962       4.20696141       0.00440508      -0.00665662      -0.00501809      15.99900000
H       13.50653581       9.16791629       3.33282692      -0.00801515       0.02954814      -0.01874273       1.00800000
H       14.83045194       9.42251407       4.11759576      -0.02212470       0.01114542      -0.00393737       1.00800000
O        9.64568238      12.66823897       0.49682838      -0.00426112       0.00598068       0.00515626      15.99900000
H       10.35865083      12.70933366      15.43873562      -0.02151061       0.02058165       0.02735371       1.00800000
H        9.14154416      13.48203091       0.24898396      -0.00901454      -0.02865025       0.01614215       1.00800000
O        3.58486528      11.17888439       6.53069492      -0.00052404      -0.00159679      -0.00291419      15.99900000
H        4.32488932      10.61176760       6.09547919       0.02302230      -0.01004613      -0.01978363       1.00800000
H        3.74613145      11.14536215       7.51178085      -0.00406163      -0.01690002      -0.01761842       1.00800000
O       13.78808521      12.45058023       5.40009014      -0.00177622       0.00265924       0.00269456      15.99900000
H       13.85016056      13.32623602       5.79256698       0.00690947       0.01208590       0.00364069       1.00800000
H       12.99915201      12.12458302       5.89120297       0.00111844      -0.00995314       0.02827449       1.00800000
O        0.67844914      11.58423208       8.74539170      -0.00432299      -0.00603856      -0.00264805      15.99900000
H        0.41900449      10.68035884       8.44295688      -0.02342036      -0.00302993       0.01084041       1.00800000
H        1.62522542      11.50843779       9.00918259       0.02240815      -0.00273794      -0.01634122       1.00800000
O        2.82740300      15.58081304       9.67398968       0.00001482       0.00696865       0.00137047      15.99900000
H        1.82137521      15.62892312       9.69031191      -0.03432544       0.01404935      -0.01365649       1.00800000
H        3.04826926      14.77359162      10.23458641       0.00425379      -0.00028090      -0.00102158       1.00800000
O        1.18276979      12.70239396      12.23974875       0.00123389       0.00277775      -0.00007835      15.99900000
H        1.18701013      13.53892516      12.77304399       0.00096928      -0.01943894       0.01070484       1.00800000
H        0.43301588      12.71770733      11.55510194      -0.01809872      -0.02163516      -0.00440925       1.00800000
O        7.69839383      13.58070447       3.25428870       0.00022144       0.00000261       0.00359562      15.99900000
H        7.82829582      14.55448913       2.99340250       0.01851163      -0.00291837       0.00859120       1.00800000
H        7.21139181      13.15991558       4.01754821       0.01560633      -0.01293883       0.00830085       1.00800000
O        2.68749567       3.07922398       8.46772116      -0.00063623       0.00591540       0.00770509      15.99900000
H        3.40361677       2.40050941       8.29653738      -0.00508687       0.00506237       0.00734278       1.00800000
H        3.13602984       3.77339450       8.99979584       0.01380814       0.01484933       0.00301047       1.00800000
O        6.88251626       6.57545917      12.19464292       0.00650412       0.00324883       0.00021301      15.99900000
H        6.64221807       7.28649517      12.85103920       0.02245866       0.02255876       0.00220246       1.00800000
H        7.72581567       6.89062613      11.80063213       0.00056978      -0.01198779       0.00072329       1.00800000
O        4.44267330       4.59020224       9.93952148       0.00618579      -0.00138676       0.00433652      15.99900000
H        4.79022412       3.84726278      10.48824659      -0.00082304      -0.00495323       0.00009585       1.00800000
H        4.07882415       5.05927498      10.78222132       0.00192118       0.00574090      -0.01230745       1.00800000
O        6.75357565       2.30810431      13.64861864       0.00656089       0.00945642      -0.00185725      15.99900000
H        6.31862163       1.93137189      14.50603300       0.02292741      -0.00836799      -0.01363258       1.00800000
H        6.80726235       3.30146163      13.88856627       0.00806119       0.01413633       0.00692948       1.00800000
O        5.76690955       2.06255809       1.75095464      -0.00306497       0.00286611       0.00169263      15.99900000
H        5.67001780       2.14209001       2.72789654       0.01531237      -0.01816634      -0.02861808       1.00800000
H        6.20279961       1.17805794       1.59961873      -0.00511766      -0.01010925       0.01122061       1.00800000
O        8.50965378       6.41744767       6.59262127       0.00224027      -0.00168915      -0.00015913      15.99900000
H        9.12272170       7.14477978       6.27323736       0.00103841       0.00069360       0.00942917       1.00800000
H        8.29304356       6.54854246       7.52981909       0.01967474       0.00880030       0.00044123       1.00800000
O        3.75933481       6.32872710       8.18936378       0.00193306      -0.00433200       0.00227559      15.99900000
H        3.73927650       6.74709329       7.28448238       0.01162049      -0.01224471       0.02799280       1.00800000
H        2.80280097       6.03434278       8.41370296      -0.00641838      -0.01939150      -0.00317528       1.00800000
O       15.34225537       3.29796027      12.20039498       0.00236794       0.00175803      -0.00113024      15.99900000
H       15.58212985       2.93423537      11.26129763      -0.01182572       0.01951601      -0.00106589       1.00800000
H        0.55263098       3.48472009      12.64682170       0.01768637       0.00861554       0.00132670       1.00800000
O        7.48200905       4.72778900      14.08197216      -0.00136446      -0.00202992       0.00178420      15.99900000
H        7.18867406       5.37691298      13.40092740      -0.02997779       0.00359655      -0.00362268       1.00800000
H        7.29182638       5.13204313      15.01555024       0.00954484      -0.00439014      -0.00950951       1.00800000
O        0.75128359      10.16572250       3.47386754      -0.00239602       0.00354238       0.00643786      15.99900000
H        0.61294159      10.30454288       2.48062598       0.02134474      -0.01498528      -0.02246073       1.00800000
H        0.91809005      11.00463392       3.99530550       0.00058733       0.00354868      -0.00808943       1.00800000
O        8.00502546       4.62410237       3.14030998       0.00145968      -0.00380303      -0.00251290      15.99900000
H        8.94831527       4.97129562       3.16588913       0.00957633       0.00935556       0.01024118       1.00800000
H        7.46485929       5.15397040       3.83151810       0.00608038      -0.01302243      -0.00692889       1.00800000
O        3.61718167       7.51942836       5.74933100       0.00311899       0.00317894      -0.00426897      15.99900000
H        2.64727947       7.83355559       5.95757804       0.00143118       0.00374770       0.00420212       1.00800000
H        3.66642182       6.65298717       5.35796161      -0.01656715       0.01482873      -0.01796585       1.00800000
O        5.31584176       7.33939835      10.13508534      -0.00494634      -0.00366865      -0.00132037      15.99900000
H        5.77338311       6.80226576      10.85637815       0.00438715      -0.02611651      -0.01082143       1.00800000
H        4.62752261       6.82096067       9.55002945       0.00214938       0.01729194      -0.01242104       1.00800000
O        4.12139664       7.01472409      14.09606469      -0.00509006       0.00022205      -0.00181340      15.99900000
H        4.66671749       7.83458995      14.11488998      -0.01514780       0.02101061       0.00074196       1.00800000
H        3.31869875       7.10784273      14.59266108       0.00692654      -0.01931418      -0.00006036       1.00800000
O        5.05627223      10.71188590       3.43844007      -0.00113692       0.00474642      -0.00074070      15.99900000
H        4.27513841      11.37459250       3.58100949       0.00806059       0.01248090       0.00471674       1.00800000
H        5.51839026      11.05811280       2.60349564       0.03222313      -0.01593557      -0.00065825       1.00800000
O        8.95527880       9.63575677       7.50265835      -0.00553004       0.00463715       0.00125013      15.99900000
H        9.26272030      10.58345232       7.44991234       0.02400689      -0.01924386       0.00045447       1.00800000
H        9.34743617       9.08663871       6.80903849      -0.02248954       0.01709725       0.00294590       1.00800000
O        3.44555388      10.86017871      13.48072582       0.00183205      -0.00375020       0.00251549      15.99900000
H        2.74161996      11.03183428      14.10200778       0.03125930      -0.00814335       0.01201292       1.00800000
H        4.11533904      10.27556708      13.92224007      -0.02498760       0.01473451       0.03485821       1.00800000
O        1.80811191      14.87091869      13.85610350       0.00111568       0.00304767      -0.00432130      15.99900000
H        2.48539281      15.01727238      13.17912768      -0.01918010      -0.00716781      -0.01495509       1.00800000
H        1.00910009      15.46948056      13.76166461      -0.00706411       0.00334674      -0.01765452       1.00800000
O        4.42503648       5.33845988       1.48638686      -0.00449812      -0.00348170       0.00016816      15.99900000
H        4.21636146       6.31508004       1.34772623      -0.00738651      -0.00963837      -0.00610652       1.00800000
H        5.23915216       5.20709852       0.92966894      -0.00917421      -0.00588607      -0.00093535       1.00800000
O        4.41670923       0.81737398       7.88432449       0.00011008      -0.00327763       0.00566763      15.99900000
H        4.01922551       0.73701026       6.98284116      -0.02408333      -0.01269249      -0.03773558       1.00800000
H        3.94835442       0.35548812       8.59963444      -0.01780446      -0.01668839      -0.02146857       1.00800000
O        7.30416568      15.56411746      10.51598290      -0.00526263      -0.00103509      -0.00808429      15.99900000
H        6.81700128       0.75323297      10.70890768      -0.01062220       0.01659723      -0.02150747       1.00800000
H        8.16542960       0.14849636      10.03916538      -0.00521941       0.00403765       0.02507208       1.00800000
O        3.45402753      13.23346502      11.00189144      -0.00194756      -0.00021173      -0.00039331      15.99900000
H        2.52765500      12.88434772      11.27788219       0.02075718       0.01286074       0.00267277       1.00800000
H        3.89827194      13.23847928      11.88462942      -0.02200222       0.00395881       0.00445021       1.00800000
O        2.28271849       5.70076309       2.48872422      -0.00359113      -0.00071129       0.00295618      15.99900000
H        1.27980812       5.45297201       2.43918120      -0.00217968      -0.00286630      -0.00639387       1.00800000
H        2.21030388       6.59197244       2.89179810       0.01712693       0.01109828      -0.00186715       1.00800000
O        7.02216921      14.77419267       6.17217346      -0.00284079       0.00616539      -0.00483884      15.99900000
H        6.54359952      14.92326276       7.04713286      -0.01250864       0.00095141      -0.01084224       1.00800000
H        7.96787829      15.08175589       6.38428094       0.00350941       0.01489703      -0.02167314       1.00800000
O       15.63809693      14.05680951       7.55654306       0.00265029       0.00130123       0.00190795      15.99900000
H        0.34694749      14.34843963       6.70079257      -0.01644577      -0.00302626       0.01736026       1.00800000
H        0.28513870      13.11514134       7.74110464       0.00448558       0.00159534      -0.00442374       1.00800000
O        1.40741986       5.67587358       8.93906088      -0.00009304       0.00080713       0.00079877      15.99900000
H        0.71549750       5.83349674       8.18085834      -0.01818703       0.00853117      -0.00155063       1.00800000
H        1.15120135       6.40233793       9.63445154       0.02360309      -0.00927801       0.01263848       1.00800000
O        3.44396860       1.12597673      12.20012740       0.00053495      -0.00009559      -0.00697387      15.99900000
H        2.83802449       1.86976457      12.52602118       0.01250238       0.01170112      -0.03569055       1.00800000
H        2.97261135       0.77194188      11.41461420       0.00711576       0.01243368      -0.02226632       1.00800000
O       11.17330473       0.67008809       4.51756514       0.00310787      -0.00657405      -0.00675504      15.99900000
H       11.30653400      15.29767215       4.60845533      -0.01277264       0.00071372       0.01181497       1.00800000
H       12.08568966       1.10805217       4.60273174      -0.00739639      -0.01150527      -0.02317197       1.00800000
O        7.57221582       3.88442390      10.51702400      -0.00173445      -0.00074731      -0.00018149      15.99900000
H        7.81004222       4.75535771      10.01086657       0.00029408       0.00293978      -0.00331988       1.00800000
H        7.17061280       3.23707093       9.85851086      -0.02225232       0.01519215       0.03614394       1.00800000
O        9.25457595       1.65660939      14.34645147      -0.00163083      -0.00496404       0.00079425      15.99900000
H        8.32745650       1.79431269      13.97578451       0.00138283      -0.02781626       0.00724426       1.00800000
H        9.48958308       2.61475190      14.44369776      -0.03226574       0.01742020      -0.01014984       1.00800000
O        5.21022819       2.50271539       4.25284283      -0.00483332       0.00184158      -0.00215205      15.99900000
H        4.60705838       1.93004238       4.85241263      -0.01251785      -0.00796662       0.00245744       1.00800000
H        5.14008436       3.46096541       4.52074027      -0.01246011      -0.00260881      -0.02964739       1.00800000
O        1.15140915      15.16381000       5.09980672      -0.00077224       0.00263900      -0.00006054      15.99900000
H        0.57364702       0.30544500       4.94787087      -0.00130849      -0.00502463       0.00465879       1.00800000