 -2.9171958e+00   1.5554731e-03
  1.1631616e+00   3.3708813e-03
 -3.0486112e-02   1.9888817e-03
  6.1266226e-01   9.9739863e-04
 -2.9917026e+00   2.8585494e-03
 -1.8310195e+00   1.6072360e-03
 -5.6917536e-01   6.7044194e-03
 -1.1770977e+00   3.1925100e-03
  2.5141999e-01   6.6889031e-03
  9.5404841e-02   1.6568875e-03
  1.3529546e+00   3.4707712e-03
 -5.2464437e-01   3.1929046e-03
 -4.9972069e-01   3.8138591e-03
  7.8200495e-01   1.5861958e-03
  1.8618152e-01   4.2855483e-03
  5.8686849e-02   8.1542470e-03
  2.0228981e-03   2.9461565e-03
  4.8145109e-01   2.0094309e-03
 -1.9185988e+00   9.3100527e-03
  8.5880142e-01   4.1248924e-03
 -3.1354423e+00   3.5207251e-03
  1.6075649e+00   3.0036592e-03
  8.1705475e-01   1.3102936e-03
 -1.1057756e-01   3.6924758e-03
  3.6580909e-02   1.9692264e-03
 -5.0363219e-01   7.0783920e-03
 -1.5493881e-02   6.8158167e-03
 -5.3316522e-01   3.7121645e-03
  2.0761305e-01   3.7244435e-03
 -1.6784747e-01   2.2514707e-03
  5.9850335e-01   1.7024467e-03
 -3.7755757e-03   1.3405009e-03
 -4.6386287e-01   5.9641087e-03
 -7.2539717e-01   4.8108557e-03
 -4.4480687e-01   3.8134966e-03
 -1.7161634e+00   1.0046143e-02
 -3.3667549e-01   1.4973111e-02
 -1.2587926e-01   3.8837576e-03
  6.0884550e-02   6.4104642e-03
  3.2241132e-02   3.2973036e-02
 -5.0921459e-02   9.3939947e-03
  6.2082484e-02   2.0912156e-02
  5.7128847e-01   5.3179283e-03
 -2.9459300e-02   1.2214206e-02
  1.2023180e-01   5.1618069e-03
  8.5771352e-01   1.4468974e-02
  8.7150913e-03   3.2111108e-02
 -3.8294377e+00   4.8633753e-03
  2.9798752e-01   3.0720055e-03
  4.4125670e-01   1.6767021e-03
 -8.7052006e-01   2.6986629e-03
 -6.7446965e-01   3.7967772e-03
  7.2633952e-01   2.0146421e-03
  1.8816778e-02   3.6174250e-03
  1.6126622e+00   6.5523642e-04
 -3.1040314e-01   4.3339604e-03
  1.1537477e+00   1.2943989e-03
 -1.2399948e+00   5.3304471e-03
  2.3022917e-01   1.1114397e-03
  7.6979488e-01   1.2942102e-03
  1.0901619e+00   1.1662544e-03
 -3.9936388e-01   5.0180005e-03
  3.2755455e-01   2.8662846e-04
  8.9400619e-02   3.6104305e-03
  4.0427979e-02   4.9483571e-03
  6.5744656e-01   1.5034543e-03
 -9.6036613e-02   4.2651333e-03
  1.1099467e+00   9.6739884e-03
 -9.4517016e-01   2.5773223e-03
 -3.2467980e-02   1.5277867e-03
  7.0356506e-01   9.8049045e-03
  6.1103165e-01   1.1501028e-03
 -5.8622813e-01   4.9784868e-03
  7.2640258e-01   6.8707308e-03
  2.1674099e+00   1.2114868e-02
  1.2664226e+00   3.9232164e-03
  1.7356051e-02   5.6015830e-03
  1.2396391e-02   2.3286473e-03
  1.9982783e-02   2.5639797e-03
 -2.6294404e-01   2.3327135e-03
  4.6733454e-02   2.8529533e-03
 -1.2467914e+00   7.1201469e-03
 -8.8653915e-02   4.2964546e-03
  6.1400092e-01   4.8346799e-03
 -6.3596897e-02   1.7606087e-02
  3.8026941e-01   1.7478509e-02
 -3.8877130e-01   6.2385458e-03
 -5.3331518e-01   9.8598553e-03
  3.3882156e-01   2.7135914e-02
 -3.3002567e-01   1.2799145e-02
  2.0130949e-01   9.2751058e-03
 -2.8861728e-01   1.9757499e-03
  3.5557054e-02   2.5240611e-02
  5.8504200e-01   3.9264397e-03
 -5.0623905e-02   2.2229888e-02
 -5.8960438e-01   1.1271399e-02
 -1.6453283e-01   1.0516842e-02
  6.5528470e-01   6.7237421e-04
 -1.2811664e+00   8.7208871e-04
  4.3779436e-02   2.7878669e-03
 -5.2331132e-01   3.7856577e-03
  3.1049552e+00   1.8664540e-03
  9.8906100e-02   3.6552679e-03
  1.0084268e+00   1.0319743e-03
  2.9255934e+00   2.9679546e-03
  2.3793187e+00   3.2989916e-03
  5.5782485e-01   2.2868405e-03
 -1.5629034e-01   9.3366019e-04
 -1.1135659e+00   3.8189727e-03
  3.8430989e-01   9.8470096e-03
  1.4276577e+00   4.3083741e-03
  5.8976278e+00   3.6135984e-03
  7.8047439e-02   2.9678766e-03
 -3.2812121e+00   2.1256246e-03
  1.7272973e-01   1.7491959e-03
 -2.1799879e-01   3.4925146e-03
  4.8068064e-01   3.2535233e-03
  8.1253402e-02   7.5712963e-03
  1.8321835e-01   3.3187941e-03
  1.2030885e+00   7.6107425e-03
  2.3589463e+00   4.1224766e-03
 -8.2613385e-01   4.9509900e-03
  1.3291214e+00   4.6122749e-03
 -1.8715488e-02   1.0009556e-02
 -4.8654094e+00   6.4340429e-03
 -7.2958209e-02   3.8673957e-03
 -2.3291347e+00   3.7375577e-03
  3.5016830e+00   4.9818831e-04
 -3.4065121e-01   1.9541271e-03
  2.6751242e+00   5.7670390e-03
 -3.9370281e-01   3.7486046e-03
 -1.1518418e+00   3.9867414e-03
 -1.0114975e+00   7.3466362e-03
  6.7741972e-01   4.4551557e-03
  1.4596329e+00   1.1297080e-02
  6.2072724e-01   3.0180695e-03
  2.0176499e+00   2.4359398e-02
 -1.2741424e-01   5.5705979e-02
  1.4356223e+00   1.0492192e-02
 -2.4429185e+00   2.1105304e-02
  6.9035804e-01   8.2817869e-03
 -3.9637399e-01   7.7890693e-03
  1.3826730e+00   3.3976408e-03
 -1.7316607e-01   1.4703187e-02
 -1.2764178e-01   4.0780731e-02
 -5.1274890e-01   1.4614304e-02
  5.8106416e-01   9.1932015e-03
  1.7269613e+00   4.7180308e-03
  2.6740699e+00   9.2323087e-03
 -2.1441435e-02   6.1924313e-03
  1.1585722e+00   4.7955629e-03
 -9.8805737e-01   2.2242270e-02
  2.8087571e+00   1.8887273e-03
  1.2871917e+00   9.3818838e-03
 -1.6824439e-01   3.7415014e-03
 -3.6647055e-01   5.0506629e-03
 -3.3754680e-01   1.7684954e-03
  1.6965462e-01   1.3998547e-02
  1.7939994e-01   5.5404655e-03
  3.6538088e-01   2.3568906e-03
  6.9693708e-01   4.4550989e-03
 -1.0545578e+00   4.5199599e-03
 -2.3163855e+00   9.4454167e-03
  2.7027678e-02   1.8338899e-03
 -1.4447212e-01   3.7637728e-03
 -2.0323839e+00   7.2257463e-03
 -1.5720873e-01   2.8032844e-03
  4.2807829e-01   4.7971769e-03
  4.5338731e-02   5.3501199e-03
  9.5350301e-01   1.2666173e-02
  5.8419794e-02   3.2552257e-03
  1.0649475e-01   6.1597987e-03
  1.6122958e-01   1.3795669e-02
  4.1096544e-01   6.3499031e-03
 -1.3970405e+00   9.6448371e-03
 -1.6862222e+00   1.0803172e-02
 -1.3830775e+00   3.4249555e-03
  4.2336464e-02   1.6396989e-03
  8.1814259e-01   3.6523403e-03
 -1.2004206e-02   1.3163954e-02
 -2.2243450e+00   8.1278076e-03
 -7.0741737e-01   6.7661949e-03
  2.4961880e-01   7.3719653e-03
 -5.1957607e-01   3.5722055e-02
 -2.8519816e+00   7.0030512e-03
  2.4781868e+00   1.2714987e-02
 -4.0426463e-01   2.9676119e-02
 -1.3293481e+00   1.3822287e-02
 -2.2665048e+00   1.3737418e-02
  1.2246708e+00   1.2096697e-02
  9.0715438e-01   3.2522615e-02
 -2.1009883e-01   4.5636497e-03
  6.3763231e-01   1.8229958e-02
 -2.8294703e-01   5.1691912e-02
 -1.3226700e+00   2.8325340e-03
  5.0346810e-01   2.5962172e-03
  7.1083540e-01   1.3879584e-03
 -4.1435996e-01   1.5713001e-03
 -1.1120021e-01   8.7120915e-03
  1.3786465e+00   1.7469085e-03
 -1.2962201e-01   3.4451855e-03
 -4.9943382e-01   9.5100957e-04
  1.1604880e+00   1.7971143e-03
 -8.7021679e-01   8.8868040e-04
 -2.4515173e-01   4.0441076e-03
 -3.8601622e-01   2.1736876e-03
 -1.0581847e-02   5.7958900e-03
 -6.1273861e-01   5.0189449e-03
  6.1513996e-04   8.2244258e-03
  2.3444052e+00   4.1455086e-03
 -2.5432994e+00   2.7450498e-03
 -8.7799174e-01   2.6141165e-03
 -1.9688196e-01   1.5356092e-03
  5.0978668e-02   3.7905215e-03
 -8.0573231e-02   8.2752453e-03
  1.1224021e+00   1.2736195e-02
  2.5958409e+00   9.8625449e-03
  1.8752389e-02   3.9120177e-03
  1.3241339e-02   4.3177474e-03
 -1.4980589e+00   2.8614078e-03
  5.3112882e-01   4.4090976e-03
 -5.7445824e-01   1.5531380e-02
  2.8201479e-01   1.4792065e-02
 -1.7527488e-01   1.1517406e-02
  1.5252376e-01   4.9129734e-03
  9.0295231e-01   3.9857402e-03
 -5.4141935e-02   4.0724888e-03
  9.9624380e-02   2.6873550e-03
  3.0834463e-01   1.1229024e-02
  2.0323982e+00   1.9668231e-03
 -1.2868729e-01   1.6802981e-02
  3.2050991e-01   7.9440298e-03
 -1.2454081e-01   1.4730897e-02
 -7.7435917e-01   7.7596973e-03
  1.1851037e+00   3.5723522e-02
 -2.0375438e-01   2.7958356e-02
  9.1800404e-01   1.3188422e-02
  1.8785383e-01   1.2648860e-02
  5.4623067e-01   5.9747915e-03
 -3.3675671e-01   2.6327837e-02
  5.9757823e-01   2.6371314e-03
 -3.1931794e-01   2.6817109e-02
 -4.1190200e-02   1.7552657e-02
 -3.1936833e-01   2.0129299e-02
 -7.0287377e-01   1.2177893e-02
  1.9668432e-01   1.1214373e-03
  2.7881396e-01   3.0094641e-03
 -5.9902523e-02   1.0895289e-02
  1.1746913e+00   6.2180362e-03
 -1.8274818e-01   1.4357455e-02
  5.6893146e-01   2.4940490e-03
 -5.0906558e-02   7.9134488e-03
  2.5505570e-01   3.6919108e-03
  2.3384488e-01   1.5937712e-02
 -2.9479489e-02   4.9388711e-04
 -8.5502070e-01   1.1290573e-02
 -1.2882251e+00   5.8307629e-03
  6.1329401e-01   2.0701915e-03
 -4.9913368e-01   1.6487798e-03
 -1.1307901e+00   4.2643622e-03
  5.8542483e-04   4.2999117e-03
  1.0128027e+00   9.1357634e-04
 -3.4617618e-01   5.6249276e-03
  3.4556302e-01   8.5768681e-03
  6.9117558e-01   2.8090801e-03
  1.7491016e-01   2.6720085e-03
 -1.1836070e-01   3.5952171e-03
 -8.5544997e-01   4.0090214e-03
  2.6391354e-01   4.5305616e-03
 -8.6581342e-02   3.9066570e-03
  2.9102331e-01   1.8495612e-02
 -4.8487836e-01   6.7926599e-03
  2.2431313e-01   7.1320827e-03
  1.0237082e-01   5.6326259e-03
  3.8847563e-01   6.5837330e-03
  1.1350751e-02   4.0597962e-03
  2.0820633e-01   2.6902549e-03
  3.1268427e-01   1.2902808e-02
 -1.4879057e-01   5.9869005e-03
  5.9667122e-01   4.1482081e-03
 -7.8087114e-02   9.6743526e-03
  2.0740777e-01   1.4044915e-02
 -2.7985469e-02   6.2928856e-03
  4.3814492e-01   2.1234673e-02
 -9.8341748e-02   1.3885497e-02
 -8.5984588e-02   9.4898436e-03
 -1.3765790e-01   1.7907210e-02
 -7.4862742e-01   7.5713512e-03
 -2.0053473e-01   5.8034293e-02
 -4.7901729e-01   4.1038296e-03
 -3.7825406e-02   2.4030898e-02
  6.3153788e-02   2.4300169e-02
  5.7245934e-01   3.7486365e-03
  1.4061478e-01   3.1045694e-03
  8.9477718e-01   6.3412399e-03
  2.4755456e+00   6.3888114e-03
 -3.5917902e+00   4.8587457e-03
  3.5610180e+00   1.7911660e-03
  3.4325057e-01   5.0708912e-03
  3.0247506e-01   2.1019804e-03
 -5.2528344e-02   1.2151287e-02
  1.5505161e+00   4.6042372e-03
 -1.1406225e+00   4.5521562e-03
 -1.4413624e+00   1.4125244e-03
 -1.7011497e+00   7.0806937e-03
 -1.6793098e-02   1.3004717e-02
  5.6415528e-01   3.7699565e-03
  1.0458747e+00   2.7266252e-03
 -1.2062507e+00   1.7829812e-03
  6.0216397e-01   6.9788303e-03
 -1.0001332e+00   1.7388669e-03
  9.0913005e-02   4.9540908e-03
  9.4486952e-02   8.4649175e-03
 -1.9905604e-02   1.3346639e-03
 -4.7389707e-01   2.0801004e-03
 -6.5759933e-01   1.0180988e-02
  3.8430190e-01   8.4505612e-03
  4.8241627e-01   3.1474077e-03
  2.7412647e-01   6.2381495e-03
 -1.4721987e+00   2.7734814e-02
 -3.9507261e-01   4.1649654e-03
 -2.8340578e-01   5.3166677e-03
 -1.7817426e-02   7.8238221e-03
  1.9311308e+00   4.4370051e-03
  5.6346267e-01   2.5077611e-03
  1.9938750e+00   4.7888546e-03
 -2.5552043e-01   1.3920957e-02
 -1.1266075e+00   4.6443008e-03
  1.7442681e-01   6.1561097e-03
 -2.3410990e+00   1.6040396e-02
 -3.2939956e-02   2.3914907e-02
  1.0330712e+00   6.0275984e-03
 -8.8204020e-01   3.4528885e-02
 -1.2757237e-01   1.2286790e-02
 -2.0592669e-01   1.6769072e-02
  1.7890635e-01   1.7254960e-02
 -3.0964437e-01   8.5196374e-03
 -1.0623994e-01   1.9195944e-02
  2.7188227e-01   2.3300876e-03
 -3.8481671e-01   8.9724567e-03
  2.4318770e-02   4.9648624e-02
  7.5501248e-02   7.3387362e-03
  2.4826826e-01   7.5191632e-03
 -1.1331183e-01   3.0752688e-03
 -1.2070422e+00   3.4857283e-03
 -2.9565966e-01   3.0652517e-03
  2.9899516e+00   3.3545210e-03
 -2.0313299e+00   1.0404686e-02
  6.8158662e-01   1.9588780e-03
 -1.7271580e-02   1.6328709e-02
  1.1209904e+00   3.4458204e-03
  1.0324094e+00   4.3009967e-03
 -9.2349654e-01   1.5195055e-03
 -3.7021795e-01   9.0241237e-03
  1.8545257e-01   6.8163318e-03
  1.4038411e-01   1.8437891e-03
  1.2256293e+00   1.4386073e-03
  1.3179974e-01   2.2939313e-03
 -1.9784145e-02   1.8992347e-03
 -6.2868679e-01   1.9362443e-03
  8.5907692e-01   7.1105869e-03
  1.2715352e-01   1.1203535e-02
  1.5655603e-01   4.6967748e-03
 -6.6888547e-01   6.3513978e-03
 -4.1843072e-01   7.5355973e-03
  6.7969251e-01   8.7626018e-03
  4.0345732e-02   4.1597793e-03
  8.9926445e-01   3.5485970e-03
 -5.1917100e-01   1.4441988e-02
 -9.6963453e-01   4.8363213e-03
 -1.4041702e+00   7.6510329e-03
  1.4971156e-01   6.6681481e-03
  2.6243839e-01   3.5670572e-03
  1.7201982e-01   2.7900944e-03
  1.9274080e+00   4.6767043e-03
 -1.1289897e+00   9.3534291e-03
 -6.7939557e-02   4.4994475e-03
  1.1230104e-02   2.5138422e-03
  1.5433007e+00   1.0515430e-02
 -1.0157441e-01   2.8719228e-02
 -5.3122568e-01   7.0622796e-03
 -9.0127438e-04   3.1248858e-02
 -1.7646484e-01   2.5232119e-02
  1.6229908e-01   1.5794693e-02
  6.6618383e-01   1.0599146e-02
  4.7807404e-01   5.3173294e-03
  1.1605062e-01   7.8028189e-03
  1.2076154e+00   3.1477718e-03
  6.9291808e-02   1.9952696e-02
 -1.9485261e-01   3.0283026e-02
 -7.6661050e-02   5.3772382e-03
  6.4548290e-01   5.6331772e-03
 -9.7768980e-01   3.2324970e-03
 -5.3543174e-01   3.0162141e-03
 -3.3202428e-02   1.3900612e-02
  8.3931118e-01   5.4869740e-03
 -3.9412968e-02   5.1917760e-03
 -2.6365957e+00   2.6255681e-03
  1.8380306e+00   1.5447938e-03
  5.2713726e-02   1.9442599e-03
  1.1049018e+00   1.0085194e-02
 -1.5168050e-01   6.2637217e-03
  3.3306956e-01   9.2059122e-03
 -2.9679614e-01   4.3777749e-03
 -2.0525713e-01   8.5392203e-03
 -8.1622325e-02   4.8152162e-03
  1.4147301e-01   2.1893214e-03
 -1.2070297e-01   8.4728552e-03
 -3.3713099e-01   7.9543954e-03
 -2.0354511e-01   4.9916878e-03
 -7.6636994e-01   7.3268875e-03
 -8.0028009e-01   5.0315405e-03
 -3.9123133e-01   3.9062728e-03
  4.5426071e-01   4.0372876e-03
 -1.9865471e-01   1.0019502e-02
  7.7414221e-01   1.3974195e-02
  1.8877050e-02   5.1248916e-03
 -2.8656062e-01   1.8568693e-02
  1.8783422e-01   1.8205421e-02
 -1.9878480e-01   1.1916326e-02
  7.9725271e-01   4.9794745e-03
  2.3639657e-01   1.3303682e-03
  7.0707418e-02   8.5995654e-03
 -2.7010259e-01   2.2016652e-03
 -6.9006234e-02   1.3240915e-02
  5.5183616e-02   8.5973274e-03
 -8.6052626e-01   3.8450973e-03
 -1.4582829e-01   1.2618482e-02
 -1.9577190e-01   3.0951193e-02
 -4.2036188e-01   9.3017258e-03
  1.6429740e-01   3.0962050e-02
  6.2357301e-01   1.3068100e-02
 -1.5288509e-01   3.8804855e-02
  4.2761162e-02   4.4778507e-02
  9.1580912e-02   5.8302912e-03
  7.5150818e-02   4.9119841e-02
  2.4677466e-01   1.0023359e-02
 -4.3011997e-03   1.0201637e-02
 -1.5573207e-01   1.7275352e-02
 -5.0304013e-01   1.7030433e-02
 -1.1083847e-01   2.1989844e-03
  4.2060661e-01   8.5683283e-04
  1.2210901e+00   1.2087302e-03
 -1.1714127e+00   4.2632734e-03
  3.6217752e-01   1.1890231e-03
  3.3448333e-01   4.8886412e-03
  1.7995981e-02   1.3316149e-03
  1.0736312e+00   1.5315942e-03
  4.0140789e-02   7.5059244e-04
 -2.1289504e+00   6.2581417e-03
  6.7823537e-02   1.6732814e-03
 -6.0975641e-01   3.3788318e-03
  8.9653629e-01   1.1548525e-02
  6.6614807e-01   5.3870687e-03
  1.8987996e-03   1.5946071e-03
 -9.9028116e-01   1.3635029e-03
 -3.4620526e+00   1.2002924e-03
  8.3816755e-01   1.8105464e-03
 -4.3874741e-01   2.2371642e-03
 -3.0140892e-02   5.8397073e-03
  3.5635707e-01   5.6753680e-03
 -2.0074668e+00   3.8130807e-03
  5.0595403e-01   5.2301646e-03
 -3.1707997e+00   1.0080390e-03
  3.7214184e-01   2.1078447e-03
  1.2855823e-01   3.4826729e-03
 -1.7603471e+00   6.9497647e-03
  2.5495463e-03   6.6984724e-03
  3.9481542e-01   4.9677105e-03
 -2.9615819e-01   1.6318276e-03
 -1.4572796e-01   1.9982520e-03
 -3.6611632e-01   3.7559047e-03
  6.4350498e-01   5.3160316e-03
  1.2625111e+00   9.4713829e-03
 -1.7353743e+00   2.9664026e-03
 -2.6330772e-01   5.6446600e-03
 -6.6358060e-01   7.4897748e-03
  3.0712780e-01   1.0897828e-02
  2.8978431e+00   7.2735809e-03
  2.7965221e-01   2.3433989e-02
  2.3782539e-01   1.8092344e-02
  1.5984860e-01   2.0347817e-02
  4.3365523e-01   1.3877611e-02
  6.9264609e-01   3.7188046e-03
 -2.2417406e-02   1.7239964e-02
 -2.6849356e-02   2.9191412e-03
 -5.3986963e-02   1.1512778e-02
  3.1276345e-02   1.0484016e-02
  2.4305464e-01   8.7039294e-03
  5.8542573e-01   3.2765144e-03
 -1.1767563e+00   3.6764279e-04
  1.7134520e+00   3.0422799e-04
 -4.3424883e-01   4.0025194e-04
 -1.2068789e+00   8.9740905e-04
 -1.6818337e+00   4.4720009e-04
  1.9820876e+00   5.6223426e-04
 -1.1410104e+00   1.2722934e-03
 -7.4636573e-01   8.7012560e-04
 -2.6144093e-01   6.6995155e-04
 -1.8942742e+00   4.8397403e-04
 -2.6568598e-01   8.1774691e-05
  2.1393506e-01   1.2419262e-04
 -6.1257625e-01   2.8641921e-04
 -5.3141290e-01   2.4098381e-04
 -1.0296595e+00   5.9224234e-04
  7.7517563e-01   1.3545236e-03
  5.8131027e-01   3.8979005e-04
 -2.5272483e-01   1.3383853e-04
 -4.2912930e-01   4.4654851e-04
  8.7948352e-01   9.2007103e-05
  1.8276753e-02   3.9459853e-03
 -1.5450057e+00   4.2879265e-03
 -3.3654508e-01   6.7931106e-03
 -3.0312622e+00   2.6415437e-03
  1.5141481e+00   2.2939930e-03
  1.6053095e+00   5.4844758e-03
 -6.7097247e-01   2.2782155e-03
  1.9266932e+00   2.6760383e-02
 -2.7581578e-01   1.2697369e-02
 -3.6115665e-02   4.0464797e-03
  2.3883684e-01   8.4510529e-03
 -2.4212630e+00   1.9086552e-03
  1.9641958e-01   1.0023652e-02
 -9.0709543e-01   9.2829140e-03
  6.3643378e-01   1.8748930e-02
 -1.1777598e+00   7.4532353e-03
 -3.8058129e-01   3.9605731e-03
 -1.6148566e-01   1.2619594e-03
 -5.9242945e-02   8.9362002e-04
  5.0917453e-01   5.5086601e-04
 -1.4261767e+00   1.7088240e-03
  4.1572499e-01   1.6829168e-02
 -1.3765282e-03   6.8508261e-03
  2.3736480e-01   8.4553100e-03
  2.6788068e+00   1.3974895e-02
 -2.2417516e-02   1.7094186e-03
  6.7897685e-02   8.1646489e-03
 -5.8505905e-01   1.6093966e-02
 -3.1731555e-01   6.7899083e-03
  1.2444849e-01   5.1896814e-03
  1.1000945e-01   3.1503655e-03
 -8.0420572e-01   1.1103150e-03
  2.2095041e+00   3.1618429e-03
  1.9506021e+00   3.4538815e-03
 -1.2472315e+00   3.7820614e-03
  5.2677143e-01   1.8270122e-02
  2.5162005e-01   4.6089169e-02
  5.2044336e-02   2.7975012e-02
  3.2379287e-01   3.2332565e-03
  4.4513056e-01   2.2755200e-02
 -8.8285363e-01   4.2269439e-03
  1.7126888e-01   6.3493713e-03
  4.0356526e-01   5.9535414e-02
 -5.1969659e-02   1.6244333e-02
 -8.3965525e-02   1.9452000e-02
  5.3731486e-02   3.9390054e-02
 -9.7677521e-02   1.5010114e-02
  2.7463433e-01   6.4146988e-02
  2.9699609e-02   2.2731584e-02
  6.7178257e-02   2.5791198e-02
 -8.9961611e-02   4.7181536e-02
 -2.4092300e-01   1.7509799e-02
 -1.5589046e-01   1.6874591e-02
 -7.4659929e-02   1.8113088e-02
 -1.6030885e-01   2.2011168e-02
 -2.4859300e-01   1.9831682e-02
 -6.2214721e-02   1.1066251e-02
  6.4195290e-02   4.2829316e-02
 -4.0435374e-02   3.9437357e-02
 -2.0265597e-01   2.0540746e-02
  2.3927391e-01   4.1321654e-02
  9.8863311e-02   2.4860514e-02
 -1.9668436e-01   4.5911413e-02
 -1.1938182e-01   1.9135283e-02
 -3.2403290e-03   2.4995225e-02
 -3.6045489e-01   4.6833225e-02
  8.7990180e-02   1.6329799e-02
 -3.3870301e-01   9.9119805e-03
  4.8176691e-01   9.9557545e-03
 -8.7875932e-02   2.3723792e-02
  1.0441726e-01   2.3664135e-02
 -4.6880334e-03   1.6448114e-02
 -1.3864650e-01   3.5739437e-02
 -1.7704271e-01   1.9713979e-02
  4.5047570e-02   1.8437432e-02
 -4.0346205e-02   1.8382408e-02
  8.4793597e-02   4.8891157e-02
  3.2028813e-02   4.0066663e-02
 -3.3565864e-02   3.1573519e-02
 -5.6962548e-03   5.0266929e-02
  3.8452931e-02   3.5340857e-02
 -2.1396688e-01   1.8327879e-02
  2.9423591e-01   3.4245271e-02
  1.8635084e-01   3.9609756e-02
 -2.7984896e-01   2.1678625e-02
 -3.0570537e-01   6.8886764e-02
 -6.7246735e-02   3.1740595e-02
  1.7703203e-02   3.7523367e-02
 -4.3300828e-03   2.4660617e-02
  2.3010880e-01   4.1325245e-02
 -9.2578113e-02   3.1734545e-02
  9.9411935e-02   2.0659780e-02
  2.5734895e-01   5.2147761e-02
  1.0888797e-02   2.7650710e-02
  2.4781488e-02   3.5347313e-02
  7.4330755e-02   2.7384780e-02
  4.8833735e-02   5.7562094e-02
  3.2747757e-01   4.0199026e-02
 -9.3108934e-01   2.0032176e-03
 -1.8107195e+00   2.2321653e-03
 -3.1631176e+00   1.3255121e-03
  3.4070156e+00   1.0224440e-03
  1.2349971e-01   1.6631872e-03
  1.7502985e+00   2.4355473e-03
 -1.0314472e+00   1.0727608e-03
  2.2707543e-01   3.1345244e-03
  4.8129869e-01   4.4979816e-03
 -2.3808609e-01   1.2702950e-03
 -1.5600212e+00   2.0861868e-03
  1.0926290e+00   1.1731848e-03
 -5.5353069e-01   1.6719555e-03
  1.0005536e+00   5.1789015e-04
 -1.0240251e+00   1.4497344e-03
 -8.5142337e-02   2.9877170e-03
  1.4187469e+00   1.0751064e-03
 -2.4872917e-01   6.3451502e-04
 -8.5130143e-01   5.3059874e-04
  4.0986240e-01   6.0199085e-04
 -2.0661491e-01   1.4065617e-03
  1.3509649e-01   3.0251909e-03
 -1.0206594e+00   9.1312086e-04
  6.9597942e-01   1.3319241e-03
  4.6796784e-01   1.7807449e-03
 -1.2805101e+00   4.1233690e-04
 -2.0546211e-01   1.7692940e-03
  2.6112747e+00   1.9831655e-03
  1.4197365e+00   9.9095155e-04
 -7.3270649e-01   1.5560198e-03
  9.2888564e-01   2.7177129e-03
 -7.2623551e-01   4.7171774e-04
 -8.7967271e-01   1.1482276e-03
 -5.2056652e-01   1.2398236e-03
  1.5581235e+00   4.4690151e-04
 -1.2682341e-01   4.1102674e-02
 -1.9513796e-01   1.2156800e-02
 -4.1319877e-01   2.7324874e-02
  1.9011502e-01   5.6144493e-03
 -1.6940101e+00   1.6630099e-03
  9.0130079e-01   2.4409757e-03
 -1.6239079e+00   6.1115227e-03
 -3.5869932e-01   2.4626553e-02
 -6.3420467e-02   3.0219710e-02
 -4.6572250e-01   1.3571879e-02
 -8.9176849e-02   7.7199708e-03
  1.6969289e-01   1.3049234e-02
 -1.7463678e+00   1.2044674e-02
 -6.3997406e-01   8.8103330e-03
  5.5909371e-01   1.6576762e-03
 -4.3045607e-01   8.6846988e-04
  3.4176028e-01   2.4802648e-03
  7.5959462e-01   3.4908045e-04
 -1.4403737e+00   6.9058733e-04
  9.7676283e-01   1.7179269e-04
 -2.9287167e+00   3.0500209e-04
 -2.8422356e+00   2.0153557e-03
  1.4821261e+00   2.9732815e-03
 -3.2019708e+00   7.0643690e-03
 -1.8822037e+00   1.6069380e-03
  3.1243186e+00   1.5858654e-03
  1.0430759e-01   1.1781491e-03
  3.5722830e+00   1.7480485e-03
 -4.7141246e-02   2.3384830e-03
  3.2087901e-01   3.0065682e-03
 -3.4460146e+00   7.7734180e-03
  7.9338223e-01   4.8263493e-04
  5.5903381e-01   5.4057245e-04
  4.2606300e-01   3.1709817e-04
 -2.4087040e-01   1.5202205e-03
  9.8880422e-01   6.6265953e-03
 -1.6355844e+00   2.2334906e-03
  2.7730527e+00   8.2885148e-04
  1.1210603e+00   9.8238490e-04
 -2.5937524e+00   1.0627834e-03
 -3.9290304e+00   1.6747598e-03
  7.0517296e-01   1.1808184e-03
 -1.2186261e-02   5.3744586e-03
  2.5404994e+00   8.8468043e-04
 -2.1958456e+00   1.8302778e-03
  2.5034037e-01   8.3085860e-04
 -2.5964098e+00   4.4302343e-04
 -2.7433699e-01   5.2884279e-04
 -2.1807353e+00   1.2503898e-03
  9.0415590e-02   2.6307577e-02
 -2.8679736e+00   7.7115740e-03
 -1.6434226e-02   2.0703964e-02
  4.4336438e+00   3.1330280e-03
 -1.7414597e+00   2.5351916e-03
  3.5815170e+00   1.2361677e-03
 -2.2582173e+00   4.0876647e-03
 -2.6602706e-01   5.2461591e-02
  2.6405710e-01   4.3401897e-02
 -3.8995931e-01   3.4235895e-02
 -1.2798686e-02   1.4313582e-02
  3.2489918e-02   5.2910075e-03
 -1.2179514e+00   2.1025592e-02
 -1.2858032e-01   1.8329524e-02
 -1.4825287e-01   1.6108253e-03
  1.8367474e+00   1.0285859e-03
  1.6561756e+00   5.6695804e-04
 -2.4089017e+00   5.9367029e-04
 -3.5614967e-01   1.9283729e-03
 -1.8895315e+00   1.2610167e-03
 -1.0525938e-02   7.9762115e-04
  1.4145912e-01   4.3242653e-03
  3.5239059e-01   5.4416005e-03
  1.2405941e+00   5.1046968e-03
  2.4536774e-01   1.7398195e-03
 -9.4665354e-01   1.6369811e-03
 -1.7108619e+00   2.0806566e-03
  1.0886730e+00   2.1714263e-03
  6.3754702e-01   5.7761050e-03
  2.3429304e-01   2.7804014e-03
  3.9560768e-01   9.9491784e-03
 -2.5937901e+00   1.5150915e-03
 -2.9303169e+00   8.8224671e-04
 -7.2139251e-01   1.3928065e-03
 -1.7672249e+00   3.8358767e-03
 -1.3165187e+00   7.0920615e-03
 -3.2115284e-01   8.2009338e-04
  1.4292269e+00   2.2778327e-03
  1.6591120e+00   2.6472553e-03
  8.5357273e-01   4.3163003e-04
  2.0025094e+00   4.1413703e-03
  2.3761113e+00   2.5711346e-03
 -1.3020411e+00   3.7319481e-03
 -1.5043412e+00   1.4072490e-03
 -7.9033339e-01   1.0611834e-03
  2.6505664e-03   6.7118183e-04
 -1.0402443e+00   7.8598002e-04
 -2.9519987e-01   1.5443059e-03
 -8.7460172e-01   1.1967861e-03
 -1.2222528e-01   2.2249848e-02
  2.5119123e-01   7.8647826e-03
  8.9793724e-01   2.7454851e-02
  2.9870537e-01   8.5489871e-04
 -2.7346435e+00   1.5582221e-03
  3.9492935e-02   7.2279815e-03
 -9.7543716e-02   1.3062112e-02
 -1.0475861e-01   2.0338634e-02
  1.4685544e-01   1.8058404e-02
  2.8456843e-01   5.8785588e-02
 -1.6721991e-01   2.0000566e-02
 -5.9054539e-02   1.4584007e-02
  2.7621052e-01   3.5693847e-02
 -1.3201439e-01   5.4744352e-03
  1.7127541e+00   1.1867409e-03
 -2.6479356e+00   1.7790534e-03
 -5.8253342e-01   9.9546160e-04
  1.8526503e+00   4.3915407e-04
 -2.8292993e-01   1.9920338e-03
  1.0643557e+00   1.7796960e-03
 -2.5829396e+00   4.2041665e-04
 -1.4048704e+00   8.6725585e-04
  1.7625412e-02   2.0892376e-03
  1.9976360e-01   2.0972274e-03
  8.7336308e-01   7.5756578e-04
 -1.7626274e+00   1.3528869e-03
 -1.2814268e+00   1.2981198e-03
 -3.0184752e-01   6.5208942e-04
 -1.4120057e+00   2.1594693e-03
  7.6346081e-01   9.8599668e-04
 -5.9968519e-01   1.2083681e-03
 -5.4157209e-01   3.0390845e-04
  8.2391971e-01   2.0944995e-04
  2.0059457e-01   2.0586711e-04
  4.4098216e-01   5.1432487e-04
  8.6070722e-01   1.5869099e-03
 -1.5407726e+00   9.5664104e-04
  2.4643075e-01   7.6314487e-04
 -1.2945750e+00   9.8103250e-04
  5.3313529e-01   2.8963143e-04
  2.0844001e-01   1.1512763e-03
 -1.7835331e+00   1.7545403e-03
 -1.1163934e+00   1.4066437e-03
 -2.7317962e-01   1.2821993e-03
  1.4296763e-01   3.8863372e-04
  1.8640076e-01   2.8250302e-04
  2.7337271e-01   4.9986801e-04
  1.3398834e+00   7.0853467e-04
 -1.4532617e+00   1.4848242e-03
 -4.2095789e-01   2.1914255e-02
 -6.2216216e-01   1.1590496e-02
 -6.5403394e-02   4.6542580e-03
  6.0316601e+00   1.2860274e-03
 -5.2732616e-03   9.0362330e-04
  2.8730407e-01   2.0656923e-03
 -2.0010018e-01   4.2643910e-03
  3.0458946e-02   8.2585746e-03
  3.4511191e-01   4.0524635e-02
 -1.8141756e+00   1.7271258e-02
  6.8609440e-03   1.0521417e-02
 -6.8982750e-01   6.9016502e-03
 -2.4949064e+00   2.4150858e-02
 -1.4193915e-01   1.1046824e-02
  1.0891200e+00   7.5558369e-04
 -4.8300765e-02   1.0143559e-03
 -8.7157685e-01   1.9122371e-03
 -1.2536981e+00   1.2239364e-04
  2.4209068e+00   6.9364154e-04
  6.5386388e-03   8.5586752e-04
 -2.0873263e+00   3.0177817e-04
  1.1343044e-01   4.7340938e-03
  5.4931030e+00   4.9037253e-03
  1.0075942e+00   8.3755264e-03
  2.4584383e-01   3.6940568e-03
 -1.0020095e+00   2.5960519e-03
 -4.5798296e-01   3.8694143e-03
  2.8414462e+00   3.8572429e-03
  3.4268506e+00   4.7903634e-03
  5.7576621e-01   2.9023828e-03
 -2.1911734e-01   5.6927218e-03
 -2.7912098e-01   1.6108692e-03
  3.2619529e+00   6.2431471e-04
 -4.0032005e+00   7.5875217e-04
  6.3977414e-01   2.9615390e-03
 -1.5895762e+00   4.7212103e-03
  1.4235184e+00   8.2890317e-03
 -3.9718753e-01   8.0875831e-04
  1.5099758e+00   4.2124428e-03
 -9.9535391e-05   1.2046000e-03
 -3.4945846e-01   3.6605035e-03
 -1.0278624e+00   5.9331027e-03
  6.1702363e-02   5.2100550e-03
  2.9767921e+00   1.9569148e-03
  2.3373771e+00   1.8049880e-03
  6.4851528e-01   1.0544352e-03
  4.8846440e+00   1.6855485e-03
  2.8308697e+00   3.0344355e-04
 -3.8795016e+00   2.4354423e-03
  3.4743428e-01   1.1335977e-02
  1.0165972e-01   2.8142642e-02
 -1.3009814e-02   1.5686516e-02
 -3.9908266e+00   4.0400797e-03
 -7.0364089e+00   5.1235883e-03
 -3.0104198e+00   3.7384001e-03
 -8.2634431e-01   6.6308947e-03
  5.8958266e-02   3.8727701e-02
  2.8260908e-01   3.3430081e-02
 -7.2388984e-02   3.3333242e-02
  3.7684068e-02   1.7547244e-02
  3.6909866e-01   4.0324237e-03
 -3.9354175e-02   3.4777023e-02
 -8.6166658e-02   1.6336799e-02
  1.5813490e+00   2.4916857e-04
 -7.1260405e-01   1.1451313e-03
 -3.9871088e-01   8.3918031e-04
  8.1463659e-01   2.7569581e-04
 -7.2907734e-01   1.1189928e-03
  7.8373975e-01   4.7505807e-04
 -1.0395011e+00   1.1183442e-04
  2.6593282e+00   1.7455544e-03
 -4.2349725e+00   6.1826250e-03
 -1.1852199e+00   2.9038598e-03
 -3.7554209e+00   2.0915726e-03
 -4.1380782e+00   4.8332703e-03
 -4.4842849e+00   3.6100596e-03
 -3.1792536e-01   1.1920236e-03
  9.9914891e-01   6.3886889e-03
 -5.6729192e-01   9.7686972e-04
 -4.3670707e+00   3.5989129e-03
  1.4264051e+00   1.1619156e-03
  3.6377819e+00   4.4655000e-04
 -9.2983693e-01   2.4859223e-03
 -2.7075691e+00   2.8997192e-03
  3.4495869e+00   2.8304853e-03
  1.8691748e+00   7.6771353e-04
 -1.8702410e+00   1.0407626e-03
 -3.7609896e-01   2.0414912e-03
 -2.9628184e+00   4.2885941e-04
 -5.0004411e+00   6.2690972e-04
 -3.8842096e+00   3.0545744e-03
 -2.6109734e+00   1.8254429e-03
 -3.4433501e+00   2.4277777e-03
 -2.1205850e+00   6.2010612e-04
 -2.8810537e+00   3.3600898e-03
 -1.6303141e+00   5.5377668e-04
 -2.5064236e-01   2.1841743e-03
 -2.2746706e+00   3.5166205e-03
 -3.5335729e-01   2.2429992e-02
  1.0914749e-02   2.0052470e-02
 -1.3211943e+00   2.9491080e-02
  1.8398620e+00   9.7620124e-03
  5.1551447e+00   3.4767347e-03
  1.8717465e+00   8.2817888e-03
 -1.1131318e+00   1.2153390e-02
 -1.2423678e-01   2.4175148e-02
 -1.9126594e-01   2.0425590e-02
 -1.6969344e-01   3.3344414e-02
  2.8053837e-02   1.2457982e-02
 -7.2063714e-02   1.5972555e-02
 -6.8434857e-02   1.8303923e-02
 -2.3216805e-01   7.7040322e-02
  1.9444762e-01   3.3074230e-02
 -2.0294352e-01   2.8311513e-02
 -4.3469414e-01   1.5614068e-02
  7.9967327e-02   1.1567334e-02
 -1.4194721e-01   2.7328689e-02
 -1.9839071e-01   7.7718366e-03
  1.6113159e-03   1.3677803e-02
  8.1246793e-02   2.9133346e-02
 -8.3316974e-02   4.4655036e-02
  7.0247250e-03   2.7250160e-02
  3.7139800e-01   3.5395961e-02
 -1.4746563e-01   7.1481974e-03
  3.0842468e-02   3.2793030e-02
  1.1977565e-01   2.3574278e-02
  3.6227795e-01   1.0585357e-02
  2.6617366e-01   1.5676202e-02
  1.5499558e-02   1.7603364e-02
 -4.2291301e-01   4.1145175e-03
 -2.6641862e+00   5.6729917e-03
 -4.2522959e-02   1.0888931e-02
  4.3608120e-01   1.2920201e-02
 -1.2029388e-02   2.1641877e-02
 -5.8650371e-02   2.2682831e-02
  1.1720204e-01   2.1222768e-02
 -2.9092468e-02   4.5256738e-02
  2.4211590e-01   8.6561441e-03
 -7.3635489e-02   2.3990352e-02
 -4.2325318e-02   3.9562760e-03
  3.4712058e-01   3.2060567e-02
  9.3169048e-02   3.2666307e-02
  4.9646436e-03   4.5134548e-02
  6.6057771e-02   8.3728814e-03
  2.1633869e-01   1.0657608e-02
  3.1828716e-02   1.3457389e-02
 -1.2757074e+00   1.9034999e-03