 vasp.5.4.4.18Apr17-6-g9f103f2a35 (build Oct 14 2019 14:20:28) complex          
  
 executed on             LinuxIFC date 2021.07.29  13:46:46
 running on   24 total cores
 distrk:  each k-point on   24 cores,    1 groups
 distr:  one band on NCORES_PER_BAND=   1 cores,   24 groups


--------------------------------------------------------------------------------------------------------


 INCAR:
 POTCAR:    PAW_PBE C 08Apr2002                   

 ----------------------------------------------------------------------------- 
|                                                                             |
|           W    W    AA    RRRRR   N    N  II  N    N   GGGG   !!!           |
|           W    W   A  A   R    R  NN   N  II  NN   N  G    G  !!!           |
|           W    W  A    A  R    R  N N  N  II  N N  N  G       !!!           |
|           W WW W  AAAAAA  RRRRR   N  N N  II  N  N N  G  GGG   !            |
|           WW  WW  A    A  R   R   N   NN  II  N   NN  G    G                |
|           W    W  A    A  R    R  N    N  II  N    N   GGGG   !!!           |
|                                                                             |
|      For optimal performance we recommend to set                            |
|        NCORE= 4 - approx SQRT( number of cores)                             |
|      NCORE specifies how many cores store one orbital (NPAR=cpu/NCORE).     |
|      This setting can  greatly improve the performance of VASP for DFT.     |
|      The default,   NCORE=1            might be grossly inefficient         |
|      on modern multi-core architectures or massively parallel machines.     |
|      Do your own testing !!!!                                               |
|      Unfortunately you need to use the default for GW and RPA calculations. |
|      (for HF NCORE is supported but not extensively tested yet)             |
|                                                                             |
 ----------------------------------------------------------------------------- 

 POTCAR:    PAW_PBE C 08Apr2002                   
   VRHFIN =C: s2p2                                                              
   LEXCH  = PE                                                                  
   EATOM  =   147.1560 eV,   10.8157 Ry                                         
                                                                                
   TITEL  = PAW_PBE C 08Apr2002                                                 
   LULTRA =        F    use ultrasoft PP ?                                      
   IUNSCR =        1    unscreen: 0-lin 1-nonlin 2-no                           
   RPACOR =    1.200    partial core radius                                     
   POMASS =   12.011; ZVAL   =    4.000    mass and valenz                      
   RCORE  =    1.500    outmost cutoff radius                                   
   RWIGS  =    1.630; RWIGS  =    0.863    wigner-seitz radius (au A)           
   ENMAX  =  400.000; ENMIN  =  300.000 eV                                      
   ICORE  =        2    local potential                                         
   LCOR   =        T    correct aug charges                                     
   LPAW   =        T    paw PP                                                  
   EAUG   =  644.873                                                            
   DEXC   =    0.000                                                            
   RMAX   =    1.529    core radius for proj-oper                               
   RAUG   =    1.300    factor for augmentation sphere                          
   RDEP   =    1.501    radius for radial grids                                 
   RDEPT  =    1.300    core radius for aug-charge                              
                                                                                
   Atomic configuration                                                         
    4 entries                                                                   
     n  l   j            E        occ.                                          
     1  0  0.50      -273.3789   2.0000                                         
     2  0  0.50       -13.7508   2.0000                                         
     2  1  0.50        -5.2854   2.0000                                         
     3  2  1.50        -5.4423   0.0000                                         
   Description                                                                  
     l       E           TYP  RCUT    TYP  RCUT                                 
     0    -13.7508458     23  1.200                                             
     0     -8.2022199     23  1.200                                             
     1     -5.2854383     23  1.500                                             
     1     34.0145650     23  1.500                                             
     2     -5.4423304      7  1.500                                             
  local pseudopotential read in
  partial core-charges read in
  partial kinetic energy density read in
  atomic valenz-charges read in
  non local Contribution for L=           0  read in
    real space projection operators read in
  non local Contribution for L=           0  read in
    real space projection operators read in
  non local Contribution for L=           1  read in
    real space projection operators read in
  non local Contribution for L=           1  read in
    real space projection operators read in
    PAW grid and wavefunctions read in
 
   number of l-projection  operators is LMAX  =           4
   number of lm-projection operators is LMMAX =           8
 
 Optimization of the real space projectors (new method)

 maximal supplied QI-value         = 25.13
 optimisation between [QCUT,QGAM] = [ 14.83, 29.66] = [ 61.58,246.30] Ry 
 Optimized for a Real-space Cutoff    0.95 Angstroem

   l    n(q)    QCUT    max X(q) W(low)/X(q) W(high)/X(q)  e(spline) 
   0      8    14.829   115.676    0.23E-03    0.28E-03    0.19E-06
   0      8    14.829    87.132    0.23E-03    0.28E-03    0.19E-06
   1      8    14.829     4.429    0.37E-03    0.62E-04    0.11E-06
   1      8    14.829     2.733    0.29E-03    0.50E-04    0.10E-06
  PAW_PBE C 08Apr2002                   :
 energy of atom  1       EATOM= -147.1560
 kinetic energy error for atom=    0.0012 (will be added to EATOM!!)
 
 
 POSCAR: Si                                      
  positions in direct lattice
  No initial velocities read in
 exchange correlation table for  LEXCH =        8
   RHO(1)=    0.500       N(1)  =     2000
   RHO(2)=  100.500       N(2)  =     4000
 


--------------------------------------------------------------------------------------------------------


 ion  position               nearest neighbor table
   1  0.997  0.008  0.508-   4 1.35  20 1.40  43 1.45
   2  0.095  0.172  0.513-   3 1.43   4 1.45   7 1.47
   3  0.995  0.227  0.510-  18 1.41   2 1.43  21 1.44
   4  0.092  0.059  0.508-   1 1.35   2 1.45   5 1.51
   5  0.199  0.004  0.497-  47 1.34   8 1.39   4 1.51
   6  0.305  0.162  0.499-  11 1.37   8 1.40   7 1.49
   7  0.201  0.221  0.499-   2 1.47  25 1.48   6 1.49
   8  0.298  0.054  0.505-   5 1.39   6 1.40   9 1.42
   9  0.399  0.001  0.506-   8 1.42  51 1.47  12 1.48
  10  0.505  0.166  0.501-  15 1.39  12 1.44  11 1.48
  11  0.399  0.220  0.497-   6 1.37  29 1.44  10 1.48
  12  0.506  0.054  0.504-  10 1.44  13 1.48   9 1.48
  13  0.606  0.991  0.506-  55 1.36  16 1.42  12 1.48
  14  0.700  0.162  0.490-  15 1.40  19 1.43  16 1.49
  15  0.604  0.219  0.497-  10 1.39  14 1.40  33 1.47
  16  0.706  0.046  0.500-  17 1.32  13 1.42  14 1.49
  17  0.795  0.988  0.501-  16 1.32  59 1.45  20 1.47
  18  0.898  0.169  0.506-   3 1.41  19 1.47  20 1.50
  19  0.793  0.224  0.505-  37 1.38  14 1.43  18 1.47
  20  0.894  0.053  0.501-   1 1.40  17 1.47  18 1.50
  21  0.993  0.339  0.499-  40 1.34  24 1.34   3 1.44
  22  0.099  0.496  0.488-  24 1.40  23 1.40  27 1.47
  23  0.003  0.555  0.488-  22 1.40  41 1.43  38 1.45
  24  0.088  0.387  0.491-  21 1.34  22 1.40  25 1.55
  25  0.202  0.336  0.492-  28 1.39   7 1.48  24 1.55
  26  0.293  0.507  0.493-  27 1.36  31 1.43  28 1.47
  27  0.197  0.556  0.505-  26 1.36  22 1.47  45 1.49
  28  0.298  0.393  0.488-  25 1.39  29 1.44  26 1.47
  29  0.396  0.331  0.491-  11 1.44  28 1.44  32 1.47
  30  0.498  0.492  0.496-  32 1.39  35 1.45  31 1.45
  31  0.398  0.553  0.497-  26 1.43  30 1.45  49 1.48
  32  0.502  0.384  0.497-  30 1.39  33 1.42  29 1.47
  33  0.604  0.333  0.503-  32 1.42  36 1.46  15 1.47
  34  0.700  0.509  0.497-  35 1.37  36 1.45  39 1.46
  35  0.598  0.550  0.488-  34 1.37  53 1.42  30 1.45
  36  0.701  0.396  0.495-  34 1.45  33 1.46  37 1.53
  37  0.805  0.329  0.494-  19 1.38  40 1.39  36 1.53
  38  0.900  0.502  0.495-  39 1.39  23 1.45  40 1.47
  39  0.806  0.560  0.502-  38 1.39  57 1.40  34 1.46
  40  0.898  0.388  0.503-  21 1.34  37 1.39  38 1.47
  41  0.002  0.664  0.504-  60 1.41  44 1.41  23 1.43
  42  0.101  0.838  0.516-  43 1.45  44 1.46  47 1.49
  43  0.999  0.895  0.513-  58 1.33   1 1.45  42 1.45
  44  0.097  0.725  0.509-  45 1.40  41 1.41  42 1.46
  45  0.196  0.672  0.502-  44 1.40  48 1.48  27 1.49
  46  0.299  0.841  0.483-  51 1.40  48 1.41  47 1.46
  47  0.198  0.899  0.494-   5 1.34  46 1.46  42 1.49
  48  0.297  0.732  0.491-  46 1.41  45 1.48  49 1.54
  49  0.403  0.668  0.496-  52 1.39  31 1.48  48 1.54
  50  0.507  0.824  0.510-  52 1.38  55 1.46  51 1.57
  51  0.398  0.886  0.501-  46 1.40   9 1.47  50 1.57
  52  0.502  0.718  0.497-  50 1.38  49 1.39  53 1.39
  53  0.598  0.661  0.494-  52 1.39  35 1.42  56 1.43
  54  0.707  0.831  0.498-  59 1.38  56 1.46  55 1.46
  55  0.607  0.885  0.515-  13 1.36  50 1.46  54 1.46
  56  0.698  0.717  0.497-  53 1.43  54 1.46  57 1.50
  57  0.808  0.669  0.503-  39 1.40  60 1.42  56 1.50
  58  0.906  0.843  0.506-  43 1.33  59 1.33  60 1.51
  59  0.805  0.878  0.513-  58 1.33  54 1.38  17 1.45
  60  0.907  0.725  0.504-  41 1.41  57 1.42  58 1.51
 
  LATTYP: Found a simple orthorhombic cell.
 ALAT       =    12.3242000000
 B/A-ratio  =     1.0392317554
 C/A-ratio  =     1.6228233881
  
  Lattice vectors:
  
 A1 = (  12.3242000000,   0.0000000000,   0.0000000000)
 A2 = (   0.0000000000,  12.8077000000,   0.0000000000)
 A3 = (   0.0000000000,   0.0000000000,  20.0000000000)


Analysis of symmetry for initial positions (statically):
=====================================================================
 Subroutine PRICEL returns:
 Original cell was already a primitive cell.
 

 Routine SETGRP: Setting up the symmetry group for a 
 simple orthorhombic supercell.


 Subroutine GETGRP returns: Found  1 space group operations
 (whereof  1 operations were pure point group operations)
 out of a pool of  8 trial point group operations.


The static configuration has the point symmetry C_1 .


Analysis of symmetry for dynamics (positions and initial velocities):
=====================================================================
 Subroutine PRICEL returns:
 Original cell was already a primitive cell.
 

 Routine SETGRP: Setting up the symmetry group for a 
 simple orthorhombic supercell.


 Subroutine GETGRP returns: Found  1 space group operations
 (whereof  1 operations were pure point group operations)
 out of a pool of  8 trial point group operations.


The dynamic configuration has the point symmetry C_1 .


 Subroutine INISYM returns: Found  1 space group operations
 (whereof  1 operations are pure point group operations),
 and found     1 'primitive' translations

 
 
 KPOINTS: Generate k-mesh automatically           

Automatic generation of k-mesh.
Space group operators:
 irot       det(A)        alpha          n_x          n_y          n_z        tau_x        tau_y        tau_z
    1     1.000000     0.000000     1.000000     0.000000     0.000000     0.000000     0.000000     0.000000
 
 Subroutine IBZKPT returns following result:
 ===========================================
 
 Found     10 irreducible k-points:
 
 Following reciprocal coordinates:
            Coordinates               Weight
  0.000000  0.000000  0.000000      1.000000
  0.250000  0.000000  0.000000      2.000000
  0.500000  0.000000  0.000000      1.000000
  0.000000  0.250000  0.000000      2.000000
  0.250000  0.250000  0.000000      2.000000
  0.500000  0.250000  0.000000      2.000000
 -0.250000  0.250000  0.000000      2.000000
  0.000000  0.500000  0.000000      1.000000
  0.250000  0.500000  0.000000      2.000000
  0.500000  0.500000  0.000000      1.000000
 
 Following cartesian coordinates:
            Coordinates               Weight
  0.000000  0.000000  0.000000      1.000000
  0.020285  0.000000  0.000000      2.000000
  0.040571  0.000000  0.000000      1.000000
  0.000000  0.019520  0.000000      2.000000
  0.020285  0.019520  0.000000      2.000000
  0.040571  0.019520  0.000000      2.000000
 -0.020285  0.019520  0.000000      2.000000
  0.000000  0.039039  0.000000      1.000000
  0.020285  0.039039  0.000000      2.000000
  0.040571  0.039039  0.000000      1.000000
 


--------------------------------------------------------------------------------------------------------




 Dimension of arrays:
   k-points           NKPTS =     10   k-points in BZ     NKDIM =     10   number of bands    NBANDS=    168
   number of dos      NEDOS =    301   number of ions     NIONS =     60
   non local maximal  LDIM  =      4   non local SUM 2l+1 LMDIM =      8
   total plane-waves  NPLWV = ******
   max r-space proj   IRMAX =   1452   max aug-charges    IRDMAX=   4850
   dimension x,y,z NGX =    90 NGY =   96 NGZ =  144
   dimension x,y,z NGXF=   180 NGYF=  192 NGZF=  288
   support grid    NGXF=   180 NGYF=  192 NGZF=  288
   ions per type =              60
   NGX,Y,Z   is equivalent  to a cutoff of  12.14, 12.46, 11.97 a.u.
   NGXF,Y,Z  is equivalent  to a cutoff of  24.28, 24.92, 23.94 a.u.

 SYSTEM =  unknown system                          
 POSCAR =  Si                                      

 Startparameter for this run:
   NWRITE =      2    write-flag & timer
   PREC   = normal    normal or accurate (medium, high low for compatibility)
   ISTART =      0    job   : 0-new  1-cont  2-samecut
   ICHARG =      2    charge: 1-file 2-atom 10-const
   ISPIN  =      1    spin polarized calculation?
   LNONCOLLINEAR =      F non collinear calculations
   LSORBIT =      F    spin-orbit coupling
   INIWAV =      1    electr: 0-lowe 1-rand  2-diag
   LASPH  =      F    aspherical Exc in radial PAW
   METAGGA=      F    non-selfconsistent MetaGGA calc.

 Electronic Relaxation 1
   ENCUT  =  850.0 eV  62.47 Ry    7.90 a.u.  29.30 30.45 47.54*2*pi/ulx,y,z
   ENINI  =  850.0     initial cutoff
   ENAUG  =  644.9 eV  augmentation charge cutoff
   NELM   =    120;   NELMIN=  2; NELMDL= -5     # of ELM steps 
   EDIFF  = 0.1E-07   stopping-criterion for ELM
   LREAL  =      T    real-space projection
   NLSPLINE    = F    spline interpolate recip. space projectors
   LCOMPAT=      F    compatible to vasp.4.4
   GGA_COMPAT  = T    GGA compatible to vasp.4.4-vasp.4.6
   LMAXPAW     = -100 max onsite density
   LMAXMIX     =    2 max onsite mixed and CHGCAR
   VOSKOWN=      0    Vosko Wilk Nusair interpolation
   ROPT   =   -0.00050
 Ionic relaxation
   EDIFFG = -.1E-04   stopping-criterion for IOM
   NSW    =      1    number of steps for IOM
   NBLOCK =      1;   KBLOCK =      1    inner block; outer block 
   IBRION =     -1    ionic relax: 0-MD 1-quasi-New 2-CG
   NFREE  =      0    steps in history (QN), initial steepest desc. (CG)
   ISIF   =      2    stress and relaxation
   IWAVPR =     10    prediction:  0-non 1-charg 2-wave 3-comb
   ISYM   =      2    0-nonsym 1-usesym 2-fastsym
   LCORR  =      T    Harris-Foulkes like correction to forces

   POTIM  = 0.5000    time-step for ionic-motion
   TEIN   =    0.0    initial temperature
   TEBEG  =    0.0;   TEEND  =   0.0 temperature during run
   SMASS  =  -3.00    Nose mass-parameter (am)
   estimated Nose-frequenzy (Omega)   =  0.10E-29 period in steps =****** mass=  -0.347E-26a.u.
   SCALEE = 1.0000    scale energy and forces
   NPACO  =    256;   APACO  = 16.0  distance and # of slots for P.C.
   PSTRESS=    0.0 pullay stress

  Mass of Ions in am
   POMASS =  12.01
  Ionic Valenz
   ZVAL   =   4.00
  Atomic Wigner-Seitz radii
   RWIGS  =  -1.00
  virtual crystal weights 
   VCA    =   1.00
   NELECT =     240.0000    total number of electrons
   NUPDOWN=      -1.0000    fix difference up-down

 DOS related values:
   EMIN   =  10.00;   EMAX   =-10.00  energy-range for DOS
   EFERMI =   0.00
   ISMEAR =     0;   SIGMA  =   0.05  broadening in eV -4-tet -1-fermi 0-gaus

 Electronic relaxation 2 (details)
   IALGO  =     38    algorithm
   LDIAG  =      T    sub-space diagonalisation (order eigenvalues)
   LSUBROT=      F    optimize rotation matrix (better conditioning)
   TURBO    =      0    0=normal 1=particle mesh
   IRESTART =      0    0=no restart 2=restart with 2 vectors
   NREBOOT  =      0    no. of reboots
   NMIN     =      0    reboot dimension
   EREF     =   0.00    reference energy to select bands
   IMIX   =      4    mixing-type and parameters
     AMIX     =   0.40;   BMIX     =  1.00
     AMIX_MAG =   1.60;   BMIX_MAG =  1.00
     AMIN     =   0.10
     WC   =   100.;   INIMIX=   1;  MIXPRE=   1;  MAXMIX= -45

 Intra band minimization:
   WEIMIN = 0.0000     energy-eigenvalue tresh-hold
   EBREAK =  0.15E-10  absolut break condition
   DEPER  =   0.30     relativ break condition  

   TIME   =   0.40     timestep for ELM

  volume/ion in A,a.u.               =      52.61       355.06
  Fermi-wavevector in a.u.,A,eV,Ry     =   0.693519  1.310562  6.543983  0.480969
  Thomas-Fermi vector in A             =   1.775756
 
 Write flags
   LWAVE        =      F    write WAVECAR
   LDOWNSAMPLE  =      F    k-point downsampling of WAVECAR
   LCHARG       =      F    write CHGCAR
   LVTOT        =      F    write LOCPOT, total local potential
   LVHAR        =      F    write LOCPOT, Hartree potential only
   LELF         =      F    write electronic localiz. function (ELF)
   LORBIT       =      0    0 simple, 1 ext, 2 COOP (PROOUT), +10 PAW based schemes


 Dipole corrections
   LMONO  =      F    monopole corrections only (constant potential shift)
   LDIPOL =      F    correct potential (dipole corrections)
   IDIPOL =      0    1-x, 2-y, 3-z, 4-all directions 
   EPSILON=  1.0000000 bulk dielectric constant

 Exchange correlation treatment:
   GGA     =    --    GGA type
   LEXCH   =     8    internal setting for exchange type
   VOSKOWN=      0    Vosko Wilk Nusair interpolation
   LHFCALC =     F    Hartree Fock is set to
   LHFONE  =     F    Hartree Fock one center treatment
   AEXX    =    0.0000 exact exchange contribution

 Linear response parameters
   LEPSILON=     F    determine dielectric tensor
   LRPA    =     F    only Hartree local field effects (RPA)
   LNABLA  =     F    use nabla operator in PAW spheres
   LVEL    =     F    velocity operator in full k-point grid
   LINTERFAST=   F  fast interpolation
   KINTER  =     0    interpolate to denser k-point grid
   CSHIFT  =0.1000    complex shift for real part using Kramers Kronig
   OMEGAMAX=  -1.0    maximum frequency
   DEG_THRESHOLD= 0.2000000E-02 threshold for treating states as degnerate
   RTIME   =   -0.100 relaxation time in fs
  (WPLASMAI=    0.000 imaginary part of plasma frequency in eV, 0.658/RTIME)
   DFIELD  = 0.0000000 0.0000000 0.0000000 field for delta impulse in time
 
 Orbital magnetization related:
   ORBITALMAG=     F  switch on orbital magnetization
   LCHIMAG   =     F  perturbation theory with respect to B field
   DQ        =  0.001000  dq finite difference perturbation B field
   LLRAUG    =     F  two centre corrections for induced B field



--------------------------------------------------------------------------------------------------------


 Static calculation
 charge density and potential will be updated during run
 non-spin polarized calculation
 Variant of blocked Davidson
 Davidson routine will perform the subspace rotation
 perform sub-space diagonalisation
    after iterative eigenvector-optimisation
 modified Broyden-mixing scheme, WC =      100.0
 initial mixing is a Kerker type mixing with AMIX =  0.4000 and BMIX =      1.0000
 Hartree-type preconditioning will be used
 using additional bands           48
 real space projection scheme for non local part
 use partial core corrections
 calculate Harris-corrections to forces 
   (improved forces if not selfconsistent)
 use gradient corrections 
 use of overlap-Matrix (Vanderbilt PP)
 Gauss-broadening in eV      SIGMA  =   0.05


--------------------------------------------------------------------------------------------------------


  energy-cutoff  :      850.00
  volume of cell :     3156.89
      direct lattice vectors                 reciprocal lattice vectors
    12.324200000  0.000000000  0.000000000     0.081141169  0.000000000  0.000000000
     0.000000000 12.807700000  0.000000000     0.000000000  0.078078031  0.000000000
     0.000000000  0.000000000 20.000000000     0.000000000  0.000000000  0.050000000

  length of vectors
    12.324200000 12.807700000 20.000000000     0.081141169  0.078078031  0.050000000


 
 k-points in units of 2pi/SCALE and weight: Generate k-mesh automatically           
   0.00000000  0.00000000  0.00000000       0.062
   0.02028529  0.00000000  0.00000000       0.125
   0.04057058  0.00000000  0.00000000       0.062
   0.00000000  0.01951951  0.00000000       0.125
   0.02028529  0.01951951  0.00000000       0.125
   0.04057058  0.01951951  0.00000000       0.125
  -0.02028529  0.01951951  0.00000000       0.125
   0.00000000  0.03903902  0.00000000       0.062
   0.02028529  0.03903902  0.00000000       0.125
   0.04057058  0.03903902  0.00000000       0.062
 
 k-points in reciprocal lattice and weights: Generate k-mesh automatically           
   0.00000000  0.00000000  0.00000000       0.062
   0.25000000  0.00000000  0.00000000       0.125
   0.50000000  0.00000000  0.00000000       0.062
   0.00000000  0.25000000  0.00000000       0.125
   0.25000000  0.25000000  0.00000000       0.125
   0.50000000  0.25000000  0.00000000       0.125
  -0.25000000  0.25000000  0.00000000       0.125
   0.00000000  0.50000000  0.00000000       0.062
   0.25000000  0.50000000  0.00000000       0.125
   0.50000000  0.50000000  0.00000000       0.062
 
 position of ions in fractional coordinates (direct lattice) 
   0.99695541  0.00777777  0.50838733
   0.09504501  0.17168822  0.51332713
   0.99482926  0.22701709  0.51020573
   0.09221474  0.05908486  0.50815747
   0.19860172  0.00372074  0.49722618
   0.30513353  0.16248977  0.49873992
   0.20060316  0.22064321  0.49852314
   0.29776113  0.05395544  0.50535101
   0.39909002  0.00081916  0.50593740
   0.50540090  0.16590561  0.50055107
   0.39930057  0.21967106  0.49710458
   0.50583810  0.05372097  0.50362407
   0.60633406  0.99078428  0.50550278
   0.69950511  0.16165591  0.48982395
   0.60372810  0.21886416  0.49698379
   0.70603491  0.04624964  0.50003347
   0.79514085  0.98842721  0.50053866
   0.89785927  0.16917476  0.50574608
   0.79273960  0.22352520  0.50503209
   0.89426374  0.05260645  0.50085536
   0.99317992  0.33851806  0.49926498
   0.09894529  0.49564798  0.48848155
   0.00342844  0.55503530  0.48806888
   0.08817414  0.38729876  0.49120276
   0.20193704  0.33599098  0.49180466
   0.29260925  0.50730488  0.49251823
   0.19681498  0.55553656  0.50530339
   0.29810565  0.39285034  0.48797889
   0.39610619  0.33131091  0.49105234
   0.49788870  0.49248124  0.49578901
   0.39843502  0.55319062  0.49748587
   0.50200180  0.38388811  0.49687029
   0.60361697  0.33309909  0.50260422
   0.69981035  0.50934704  0.49654832
   0.59821514  0.55021423  0.48823020
   0.70131962  0.39584967  0.49472976
   0.80455018  0.32910647  0.49411119
   0.89996146  0.50163784  0.49531427
   0.80562918  0.56010363  0.50229098
   0.89794655  0.38782438  0.50330054
   0.00185302  0.66394708  0.50400543
   0.10093482  0.83807764  0.51577097
   0.99907654  0.89481255  0.51255988
   0.09736408  0.72465447  0.50871879
   0.19635647  0.67199283  0.50175658
   0.29889244  0.84147983  0.48335267
   0.19787550  0.89910707  0.49394210
   0.29743746  0.73212583  0.49086580
   0.40262007  0.66834897  0.49583380
   0.50721732  0.82420712  0.50978976
   0.39805985  0.88639247  0.50123861
   0.50246139  0.71845073  0.49663258
   0.59767024  0.66055483  0.49442914
   0.70700688  0.83072602  0.49814824
   0.60655217  0.88535778  0.51544482
   0.69766369  0.71715899  0.49665046
   0.80799468  0.66900282  0.50301046
   0.90626500  0.84327133  0.50613343
   0.80488850  0.87763488  0.51287871
   0.90675515  0.72537890  0.50423625
 
 position of ions in cartesian coordinates  (Angst):
  12.28667786  0.09961534 10.16774660
   1.17135371  2.19893122 10.26654260
  12.26047477  2.90756678 10.20411460
   1.13647290  0.75674116 10.16314940
   2.44760732  0.04765412  9.94452360
   3.76052665  2.08112023  9.97479840
   2.47227346  2.82593204  9.97046280
   3.66966772  0.69104509 10.10702020
   4.91846522  0.01049156 10.11874800
   6.22866177  2.12486928 10.01102140
   4.92106008  2.81348104  9.94209160
   6.23404991  0.68804207 10.07248140
   7.47258222 12.68966782 10.11005560
   8.62084088  2.07044040  9.79647900
   7.44046585  2.80314650  9.93967580
   8.70131544  0.59235151 10.00066940
   9.79947486 12.65947918 10.01077320
  11.06539722  2.16673957 10.11492160
   9.76988138  2.86284370 10.10064180
  11.02108518  0.67376763 10.01710720
  12.24014797  4.33563776  9.98529960
   1.21942154  6.34811063  9.76963100
   0.04225278  7.10872561  9.76137760
   1.08667574  4.96040633  9.82405520
   2.48871247  4.30327167  9.83609320
   3.60617492  6.49740871  9.85036460
   2.42558718  7.11514560 10.10606780
   3.67391365  5.03150930  9.75957780
   4.88169191  4.24333074  9.82104680
   6.13607992  6.30755198  9.91578020
   4.91039287  7.08509950  9.94971740
   6.18677058  4.91672375  9.93740580
   7.43909626  4.26623321 10.05208440
   8.62460272  6.52356408  9.93096640
   7.37252303  7.04697879  9.76460400
   8.64320326  5.06992382  9.89459520
   9.91543733  4.21509694  9.88222380
  11.09130503  6.42482696  9.90628540
   9.92873514  7.17363926 10.04581960
  11.06647287  4.96713831 10.06601080
   0.02283699  8.50363502 10.08010860
   1.24394091 10.73384699 10.31541940
  12.31281909 11.46049070 10.25119760
   1.19993439  9.28115706 10.17437580
   2.41993641  8.60668257 10.03513160
   3.68361021 10.77742122  9.66705340
   2.43865724 11.51549362  9.87884200
   3.66567874  9.37684799  9.81731600
   4.96197027  8.56001310  9.91667600
   6.25104770 10.55619753 10.19579520
   4.90576920 11.35264884 10.02477220
   6.19243466  9.20170141  9.93265160
   7.36580757  8.46018810  9.88858280
   8.71329419 10.63968965  9.96296480
   7.47527025 11.33939684 10.30889640
   8.59814685  9.18515720  9.93300920
   9.95788804  8.56838742 10.06020920
  11.16899111 10.80036621 10.12266860
   9.91960685 11.24048425 10.25757420
  11.17503182  9.29043534 10.08472500
 


--------------------------------------------------------------------------------------------------------


 k-point  1 :   0.0000 0.0000 0.0000  plane waves:  177609
 k-point  2 :   0.2500 0.0000 0.0000  plane waves:  177657
 k-point  3 :   0.5000 0.0000 0.0000  plane waves:  177702
 k-point  4 :   0.0000 0.2500 0.0000  plane waves:  177727
 k-point  5 :   0.2500 0.2500 0.0000  plane waves:  177652
 k-point  6 :   0.5000 0.2500 0.0000  plane waves:  177674
 k-point  7 :  -0.2500 0.2500 0.0000  plane waves:  177652
 k-point  8 :   0.0000 0.5000 0.0000  plane waves:  177632
 k-point  9 :   0.2500 0.5000 0.0000  plane waves:  177652
 k-point 10 :   0.5000 0.5000 0.0000  plane waves:  177568

 maximum and minimum number of plane-waves per node :    177727   177568

 maximum number of plane-waves:    177727
 maximum index in each direction: 
   IXMAX=   29   IYMAX=   30   IZMAX=   47
   IXMIN=  -29   IYMIN=  -30   IZMIN=  -47


 serial   3D FFT for wavefunctions
 parallel 3D FFT for charge:
    minimum data exchange during FFTs selected (reduces bandwidth)


 total amount of memory used by VASP MPI-rank0   327965. kBytes
=======================================================================

   base      :      30000. kBytes
   nonlr-proj:       7197. kBytes
   fftplans  :      19738. kBytes
   grid      :      71236. kBytes
   one-center:        184. kBytes
   wavefun   :     199610. kBytes
 
     INWAV:  cpu time    0.0000: real time    0.0005
 Broyden mixing: mesh for mixing (old mesh)
   NGX = 59   NGY = 61   NGZ = 95
  (NGX  =180   NGY  =192   NGZ  =288)
  gives a total of 341905 points

 initial charge density was supplied:
 charge density of overlapping atoms calculated
 number of electron     240.0000000 magnetization 
 keeping initial charge density in first step


--------------------------------------------------------------------------------------------------------


 Maximum index for non-local projection operator         1378
 Maximum index for augmentation-charges          333 (set IRDMAX)


--------------------------------------------------------------------------------------------------------


 First call to EWALD:  gamma=   0.121
 Maximum number of real-space cells 3x 3x 2
 Maximum number of reciprocal cells 2x 2x 4

    FEWALD:  cpu time    0.0540: real time    0.0730


--------------------------------------- Iteration      1(   1)  ---------------------------------------


    POTLOK:  cpu time    8.2659: real time    8.3534
    SETDIJ:  cpu time    0.2416: real time    0.2417
     EDDAV:  cpu time 1342.8806: real time 1349.6062
       DOS:  cpu time    0.0025: real time    0.0025
    --------------------------------------------
      LOOP:  cpu time 1351.3906: real time 1358.2038

 eigenvalue-minimisations  :  3360
 total energy-change (2. order) : 0.2749301E+04  (-0.1036124E+05)
 number of electron     240.0000000 magnetization 
 augmentation part      240.0000000 magnetization 

 Free energy of the ion-electron system (eV)
  ---------------------------------------------------
  alpha Z        PSCENC =        93.67696837
  Ewald energy   TEWEN  =     38679.63810314
  -Hartree energ DENC   =    -45078.23280104
  -exchange      EXHF   =         0.00000000
  -V(xc)+E(xc)   XCENC  =       789.22349701
  PAW double counting   =      6511.32278280    -6545.48713133
  entropy T*S    EENTRO =        -0.02502858
  eigenvalues    EBANDS =      -530.10240525
  atomic energy  EATOM  =      8829.28746127
  Solvation  Ediel_sol  =         0.00000000
  ---------------------------------------------------
  free energy    TOTEN  =      2749.30144640 eV

  energy without entropy =     2749.32647498  energy(sigma->0) =     2749.31396069


--------------------------------------------------------------------------------------------------------




--------------------------------------- Iteration      1(   2)  ---------------------------------------


     EDDAV:  cpu time 2040.7272: real time 2047.6890
       DOS:  cpu time    0.0022: real time    0.0022
    --------------------------------------------
      LOOP:  cpu time 2040.7295: real time 2047.6912

 eigenvalue-minimisations  :  5712
 total energy-change (2. order) :-0.2771047E+04  (-0.2593005E+04)
 number of electron     240.0000000 magnetization 
 augmentation part      240.0000000 magnetization 

 Free energy of the ion-electron system (eV)
  ---------------------------------------------------
  alpha Z        PSCENC =        93.67696837
  Ewald energy   TEWEN  =     38679.63810314
  -Hartree energ DENC   =    -45078.23280104
  -exchange      EXHF   =         0.00000000
  -V(xc)+E(xc)   XCENC  =       789.22349701
  PAW double counting   =      6511.32278280    -6545.48713133
  entropy T*S    EENTRO =        -0.00000042
  eigenvalues    EBANDS =     -3301.17492663
  atomic energy  EATOM  =      8829.28746127
  Solvation  Ediel_sol  =         0.00000000
  ---------------------------------------------------
  free energy    TOTEN  =       -21.74604682 eV

  energy without entropy =      -21.74604640  energy(sigma->0) =      -21.74604661


--------------------------------------------------------------------------------------------------------




--------------------------------------- Iteration      1(   3)  ---------------------------------------


     EDDAV:  cpu time 1605.7723: real time 1610.5766
       DOS:  cpu time    0.0027: real time    0.0032
    --------------------------------------------
      LOOP:  cpu time 1605.7749: real time 1610.5798

 eigenvalue-minimisations  :  4128
 total energy-change (2. order) :-0.5379779E+03  (-0.5358215E+03)
 number of electron     240.0000000 magnetization 
 augmentation part      240.0000000 magnetization 

 Free energy of the ion-electron system (eV)
  ---------------------------------------------------
  alpha Z        PSCENC =        93.67696837
  Ewald energy   TEWEN  =     38679.63810314
  -Hartree energ DENC   =    -45078.23280104
  -exchange      EXHF   =         0.00000000
  -V(xc)+E(xc)   XCENC  =       789.22349701
  PAW double counting   =      6511.32278280    -6545.48713133
  entropy T*S    EENTRO =        -0.00000035
  eigenvalues    EBANDS =     -3839.15279081
  atomic energy  EATOM  =      8829.28746127
  Solvation  Ediel_sol  =         0.00000000
  ---------------------------------------------------
  free energy    TOTEN  =      -559.72391092 eV

  energy without entropy =     -559.72391058  energy(sigma->0) =     -559.72391075


--------------------------------------------------------------------------------------------------------




--------------------------------------- Iteration      1(   4)  ---------------------------------------


     EDDAV:  cpu time 1673.3447: real time 1678.5865
       DOS:  cpu time    0.0020: real time    0.0020
    --------------------------------------------
      LOOP:  cpu time 1673.3467: real time 1678.5885

 eigenvalue-minimisations  :  4344
 total energy-change (2. order) :-0.2122705E+02  (-0.2113957E+02)
 number of electron     240.0000000 magnetization 
 augmentation part      240.0000000 magnetization 

 Free energy of the ion-electron system (eV)
  ---------------------------------------------------
  alpha Z        PSCENC =        93.67696837
  Ewald energy   TEWEN  =     38679.63810314
  -Hartree energ DENC   =    -45078.23280104
  -exchange      EXHF   =         0.00000000
  -V(xc)+E(xc)   XCENC  =       789.22349701
  PAW double counting   =      6511.32278280    -6545.48713133
  entropy T*S    EENTRO =        -0.00000000
  eigenvalues    EBANDS =     -3860.37983822
  atomic energy  EATOM  =      8829.28746127
  Solvation  Ediel_sol  =         0.00000000
  ---------------------------------------------------
  free energy    TOTEN  =      -580.95095799 eV

  energy without entropy =     -580.95095799  energy(sigma->0) =     -580.95095799


--------------------------------------------------------------------------------------------------------




--------------------------------------- Iteration      1(   5)  ---------------------------------------


     EDDAV:  cpu time 1767.2072: real time 1772.2069
       DOS:  cpu time    0.0020: real time    0.0020
    CHARGE:  cpu time   73.1004: real time   73.1446
    MIXING:  cpu time    0.6860: real time    0.6874
    --------------------------------------------
      LOOP:  cpu time 1840.9956: real time 1846.0411

 eigenvalue-minimisations  :  4776
 total energy-change (2. order) :-0.5859586E+00  (-0.5848497E+00)
 number of electron     239.9999996 magnetization 
 augmentation part        6.2746534 magnetization 

 Broyden mixing:
  rms(total) = 0.34418E+01    rms(broyden)= 0.34418E+01
  rms(prec ) = 0.36844E+01
  weight for this iteration     100.00

 Free energy of the ion-electron system (eV)
  ---------------------------------------------------
  alpha Z        PSCENC =        93.67696837
  Ewald energy   TEWEN  =     38679.63810314
  -Hartree energ DENC   =    -45078.23280104
  -exchange      EXHF   =         0.00000000
  -V(xc)+E(xc)   XCENC  =       789.22349701
  PAW double counting   =      6511.32278280    -6545.48713133
  entropy T*S    EENTRO =        -0.00000000
  eigenvalues    EBANDS =     -3860.96579680
  atomic energy  EATOM  =      8829.28746127
  Solvation  Ediel_sol  =         0.00000000
  ---------------------------------------------------
  free energy    TOTEN  =      -581.53691658 eV

  energy without entropy =     -581.53691657  energy(sigma->0) =     -581.53691657


--------------------------------------------------------------------------------------------------------




--------------------------------------- Iteration      1(   6)  ---------------------------------------


    POTLOK:  cpu time    8.4159: real time    8.4334
    SETDIJ:  cpu time    0.2386: real time    0.2387
     EDDAV:  cpu time 1513.4816: real time 1518.5732
       DOS:  cpu time    0.0025: real time    0.0037
    CHARGE:  cpu time   72.9945: real time   73.1243
    MIXING:  cpu time    0.6900: real time    0.6937
    --------------------------------------------
      LOOP:  cpu time 1595.8233: real time 1601.0671

 eigenvalue-minimisations  :  3984
 total energy-change (2. order) : 0.2740902E+02  (-0.2619050E+01)
 number of electron     239.9999996 magnetization 
 augmentation part        6.0116143 magnetization 

 Broyden mixing:
  rms(total) = 0.20139E+01    rms(broyden)= 0.20139E+01
  rms(prec ) = 0.21342E+01
  weight for this iteration     100.00

 eigenvalues of (default mixing * dielectric matrix)
  average eigenvalue GAMMA=   2.1744
  2.1744

 Free energy of the ion-electron system (eV)
  ---------------------------------------------------
  alpha Z        PSCENC =        93.67696837
  Ewald energy   TEWEN  =     38679.63810314
  -Hartree energ DENC   =    -45411.20101348
  -exchange      EXHF   =         0.00000000
  -V(xc)+E(xc)   XCENC  =       803.38148715
  PAW double counting   =     11872.78531138   -11911.28157013
  entropy T*S    EENTRO =        -0.00000000
  eigenvalues    EBANDS =     -3510.41464261
  atomic energy  EATOM  =      8829.28746127
  Solvation  Ediel_sol  =         0.00000000
  ---------------------------------------------------
  free energy    TOTEN  =      -554.12789491 eV

  energy without entropy =     -554.12789491  energy(sigma->0) =     -554.12789491


--------------------------------------------------------------------------------------------------------




--------------------------------------- Iteration      1(   7)  ---------------------------------------


    POTLOK:  cpu time    8.3950: real time    8.4884
    SETDIJ:  cpu time    0.2445: real time    0.2447
     EDDAV:  cpu time 1588.9337: real time 1592.1116
       DOS:  cpu time    0.0020: real time    0.0020
    CHARGE:  cpu time   73.0489: real time   73.0916
    MIXING:  cpu time    0.7010: real time    0.7019
    --------------------------------------------
      LOOP:  cpu time 1671.3251: real time 1674.6401

 eigenvalue-minimisations  :  4248
 total energy-change (2. order) : 0.1025693E+02  (-0.3438098E+01)
 number of electron     239.9999996 magnetization 
 augmentation part        5.6891256 magnetization 

 Broyden mixing:
  rms(total) = 0.54414E+00    rms(broyden)= 0.54414E+00
  rms(prec ) = 0.56527E+00
  weight for this iteration     100.00

 eigenvalues of (default mixing * dielectric matrix)
  average eigenvalue GAMMA=   2.0407
  1.8494  2.2321

 Free energy of the ion-electron system (eV)
  ---------------------------------------------------
  alpha Z        PSCENC =        93.67696837
  Ewald energy   TEWEN  =     38679.63810314
  -Hartree energ DENC   =    -45848.75925267
  -exchange      EXHF   =         0.00000000
  -V(xc)+E(xc)   XCENC  =       821.96678085
  PAW double counting   =     22001.52759924   -22043.81353177
  entropy T*S    EENTRO =        -0.00000000
  eigenvalues    EBANDS =     -3077.39509451
  atomic energy  EATOM  =      8829.28746127
  Solvation  Ediel_sol  =         0.00000000
  ---------------------------------------------------
  free energy    TOTEN  =      -543.87096606 eV

  energy without entropy =     -543.87096606  energy(sigma->0) =     -543.87096606


--------------------------------------------------------------------------------------------------------




--------------------------------------- Iteration      1(   8)  ---------------------------------------


    POTLOK:  cpu time    8.3889: real time    8.4540
    SETDIJ:  cpu time    0.2379: real time    0.2415
     EDDAV:  cpu time 1539.8801: real time 1543.0615
       DOS:  cpu time    0.0023: real time    0.0188
    CHARGE:  cpu time   75.3637: real time   75.4530
    MIXING:  cpu time    0.7351: real time    0.7360
    --------------------------------------------
      LOOP:  cpu time 1624.6083: real time 1627.9652

 eigenvalue-minimisations  :  3984
 total energy-change (2. order) : 0.1458224E+00  (-0.1202835E+00)
 number of electron     239.9999996 magnetization 
 augmentation part        5.6644576 magnetization 

 Broyden mixing:
  rms(total) = 0.13072E+00    rms(broyden)= 0.13072E+00
  rms(prec ) = 0.16092E+00
  weight for this iteration     100.00

 eigenvalues of (default mixing * dielectric matrix)
  average eigenvalue GAMMA=   1.8423
  1.1452  1.9903  2.3914

 Free energy of the ion-electron system (eV)
  ---------------------------------------------------
  alpha Z        PSCENC =        93.67696837
  Ewald energy   TEWEN  =     38679.63810314
  -Hartree energ DENC   =    -45905.15105155
  -exchange      EXHF   =         0.00000000
  -V(xc)+E(xc)   XCENC  =       822.49336282
  PAW double counting   =     24287.39460694   -24328.47135324
  entropy T*S    EENTRO =        -0.00000000
  eigenvalues    EBANDS =     -3022.59324146
  atomic energy  EATOM  =      8829.28746127
  Solvation  Ediel_sol  =         0.00000000
  ---------------------------------------------------
  free energy    TOTEN  =      -543.72514370 eV

  energy without entropy =     -543.72514370  energy(sigma->0) =     -543.72514370


--------------------------------------------------------------------------------------------------------




--------------------------------------- Iteration      1(   9)  ---------------------------------------


    POTLOK:  cpu time    8.6556: real time    8.7222
    SETDIJ:  cpu time    0.2472: real time    0.2494
     EDDAV:  cpu time 1598.2744: real time 1601.9014
       DOS:  cpu time    0.0025: real time    0.0027
    CHARGE:  cpu time   75.3805: real time   75.4425
    MIXING:  cpu time    0.7449: real time    0.7465
    --------------------------------------------
      LOOP:  cpu time 1683.3047: real time 1687.0643

 eigenvalue-minimisations  :  4104
 total energy-change (2. order) : 0.7417634E-01  (-0.1285680E-01)
 number of electron     239.9999996 magnetization 
 augmentation part        5.6580257 magnetization 

 Broyden mixing:
  rms(total) = 0.45182E-01    rms(broyden)= 0.45181E-01
  rms(prec ) = 0.82597E-01
  weight for this iteration     100.00

 eigenvalues of (default mixing * dielectric matrix)
  average eigenvalue GAMMA=   1.6452
  2.2021  2.2021  0.9689  1.2077

 Free energy of the ion-electron system (eV)
  ---------------------------------------------------
  alpha Z        PSCENC =        93.67696837
  Ewald energy   TEWEN  =     38679.63810314
  -Hartree energ DENC   =    -45946.87298320
  -exchange      EXHF   =         0.00000000
  -V(xc)+E(xc)   XCENC  =       823.05601285
  PAW double counting   =     24880.38425634   -24921.11930272
  entropy T*S    EENTRO =        -0.00000000
  eigenvalues    EBANDS =     -2981.70148341
  atomic energy  EATOM  =      8829.28746127
  Solvation  Ediel_sol  =         0.00000000
  ---------------------------------------------------
  free energy    TOTEN  =      -543.65096736 eV

  energy without entropy =     -543.65096735  energy(sigma->0) =     -543.65096735


--------------------------------------------------------------------------------------------------------




--------------------------------------- Iteration      1(  10)  ---------------------------------------


    POTLOK:  cpu time    8.7136: real time    8.7557
    SETDIJ:  cpu time    0.2495: real time    0.2503
     EDDAV:  cpu time 1611.5792: real time 1616.3029
       DOS:  cpu time    0.0022: real time    0.0022
    CHARGE:  cpu time   75.3917: real time   75.5852
    MIXING:  cpu time    0.7621: real time    0.7632
    --------------------------------------------
      LOOP:  cpu time 1696.6984: real time 1701.6594

 eigenvalue-minimisations  :  4152
 total energy-change (2. order) : 0.2362701E-01  (-0.1994089E-02)
 number of electron     239.9999996 magnetization 
 augmentation part        5.6548481 magnetization 

 Broyden mixing:
  rms(total) = 0.27819E-01    rms(broyden)= 0.27819E-01
  rms(prec ) = 0.60872E-01
  weight for this iteration     100.00

 eigenvalues of (default mixing * dielectric matrix)
  average eigenvalue GAMMA=   1.7242
  2.4332  2.4332  1.5391  1.3318  0.8835

 Free energy of the ion-electron system (eV)
  ---------------------------------------------------
  alpha Z        PSCENC =        93.67696837
  Ewald energy   TEWEN  =     38679.63810314
  -Hartree energ DENC   =    -45974.73703930
  -exchange      EXHF   =         0.00000000
  -V(xc)+E(xc)   XCENC  =       823.28541781
  PAW double counting   =     24768.31208112   -24808.97532112
  entropy T*S    EENTRO =        -0.00000000
  eigenvalues    EBANDS =     -2954.11501164
  atomic energy  EATOM  =      8829.28746127
  Solvation  Ediel_sol  =         0.00000000
  ---------------------------------------------------
  free energy    TOTEN  =      -543.62734034 eV

  energy without entropy =     -543.62734034  energy(sigma->0) =     -543.62734034


--------------------------------------------------------------------------------------------------------




--------------------------------------- Iteration      1(  11)  ---------------------------------------


    POTLOK:  cpu time    8.7238: real time    8.7581
    SETDIJ:  cpu time    0.2401: real time    0.2412
     EDDAV:  cpu time 1497.1586: real time 1503.7734
       DOS:  cpu time    0.0019: real time    0.0019
    CHARGE:  cpu time   73.0836: real time   73.1577
    MIXING:  cpu time    0.7306: real time    0.7322
    --------------------------------------------
      LOOP:  cpu time 1579.9385: real time 1586.6648

 eigenvalue-minimisations  :  3840
 total energy-change (2. order) : 0.1613219E-01  (-0.2203389E-02)
 number of electron     239.9999996 magnetization 
 augmentation part        5.6509442 magnetization 

 Broyden mixing:
  rms(total) = 0.18673E-01    rms(broyden)= 0.18673E-01
  rms(prec ) = 0.37564E-01
  weight for this iteration     100.00

 eigenvalues of (default mixing * dielectric matrix)
  average eigenvalue GAMMA=   1.7985
  2.9163  2.6317  1.9134  0.9464  1.1915  1.1915

 Free energy of the ion-electron system (eV)
  ---------------------------------------------------
  alpha Z        PSCENC =        93.67696837
  Ewald energy   TEWEN  =     38679.63810314
  -Hartree energ DENC   =    -46021.10648263
  -exchange      EXHF   =         0.00000000
  -V(xc)+E(xc)   XCENC  =       823.74288652
  PAW double counting   =     24730.05171383   -24770.63531177
  entropy T*S    EENTRO =        -0.00000000
  eigenvalues    EBANDS =     -2908.26654689
  atomic energy  EATOM  =      8829.28746127
  Solvation  Ediel_sol  =         0.00000000
  ---------------------------------------------------
  free energy    TOTEN  =      -543.61120815 eV

  energy without entropy =     -543.61120815  energy(sigma->0) =     -543.61120815


--------------------------------------------------------------------------------------------------------




--------------------------------------- Iteration      1(  12)  ---------------------------------------


    POTLOK:  cpu time    8.4314: real time    8.4603
    SETDIJ:  cpu time    0.2399: real time    0.2418
     EDDAV:  cpu time 1446.6561: real time 1450.7264
       DOS:  cpu time    0.0022: real time    0.0029
    CHARGE:  cpu time   73.0958: real time   73.1735
    MIXING:  cpu time    0.7678: real time    0.7699
    --------------------------------------------
      LOOP:  cpu time 1529.1934: real time 1533.3746

 eigenvalue-minimisations  :  3744
 total energy-change (2. order) :-0.3023970E-02  (-0.1323759E-02)
 number of electron     239.9999996 magnetization 
 augmentation part        5.6465323 magnetization 

 Broyden mixing:
  rms(total) = 0.11670E-01    rms(broyden)= 0.11669E-01
  rms(prec ) = 0.20831E-01
  weight for this iteration     100.00

 eigenvalues of (default mixing * dielectric matrix)
  average eigenvalue GAMMA=   2.0403
  4.7315  2.4003  1.9354  1.9354  0.9283  1.1756  1.1756

 Free energy of the ion-electron system (eV)
  ---------------------------------------------------
  alpha Z        PSCENC =        93.67696837
  Ewald energy   TEWEN  =     38679.63810314
  -Hartree energ DENC   =    -46058.75342289
  -exchange      EXHF   =         0.00000000
  -V(xc)+E(xc)   XCENC  =       824.11010638
  PAW double counting   =     24711.77302411   -24752.36684586
  entropy T*S    EENTRO =        -0.00000000
  eigenvalues    EBANDS =     -2870.97962666
  atomic energy  EATOM  =      8829.28746127
  Solvation  Ediel_sol  =         0.00000000
  ---------------------------------------------------
  free energy    TOTEN  =      -543.61423212 eV

  energy without entropy =     -543.61423212  energy(sigma->0) =     -543.61423212


--------------------------------------------------------------------------------------------------------




--------------------------------------- Iteration      1(  13)  ---------------------------------------


    POTLOK:  cpu time    8.3773: real time    8.4338
    SETDIJ:  cpu time    0.2420: real time    0.2424
     EDDAV:  cpu time 1485.4417: real time 1490.2484
       DOS:  cpu time    0.0020: real time    0.0020
    CHARGE:  cpu time   73.0393: real time   73.1228
    MIXING:  cpu time    0.7833: real time    0.7856
    --------------------------------------------
      LOOP:  cpu time 1567.8856: real time 1572.8351

 eigenvalue-minimisations  :  3888
 total energy-change (2. order) :-0.7448389E-02  (-0.3996337E-03)
 number of electron     239.9999996 magnetization 
 augmentation part        5.6451125 magnetization 

 Broyden mixing:
  rms(total) = 0.64531E-02    rms(broyden)= 0.64531E-02
  rms(prec ) = 0.11386E-01
  weight for this iteration     100.00

 eigenvalues of (default mixing * dielectric matrix)
  average eigenvalue GAMMA=   2.1228
  5.6323  2.4148  2.4148  1.8794  1.3194  1.3194  0.8959  1.1064

 Free energy of the ion-electron system (eV)
  ---------------------------------------------------
  alpha Z        PSCENC =        93.67696837
  Ewald energy   TEWEN  =     38679.63810314
  -Hartree energ DENC   =    -46077.69614530
  -exchange      EXHF   =         0.00000000
  -V(xc)+E(xc)   XCENC  =       824.17741670
  PAW double counting   =     24703.77465201   -24744.36899204
  entropy T*S    EENTRO =        -0.00000000
  eigenvalues    EBANDS =     -2852.11114467
  atomic energy  EATOM  =      8829.28746127
  Solvation  Ediel_sol  =         0.00000000
  ---------------------------------------------------
  free energy    TOTEN  =      -543.62168051 eV

  energy without entropy =     -543.62168051  energy(sigma->0) =     -543.62168051


--------------------------------------------------------------------------------------------------------




--------------------------------------- Iteration      1(  14)  ---------------------------------------


    POTLOK:  cpu time    8.4598: real time    8.4914
    SETDIJ:  cpu time    0.2428: real time    0.2436
     EDDAV:  cpu time 1430.8266: real time 1434.8768
       DOS:  cpu time    0.0022: real time    0.0022
    CHARGE:  cpu time   75.2902: real time   75.4789
    MIXING:  cpu time    0.8278: real time    0.8288
    --------------------------------------------
      LOOP:  cpu time 1515.6494: real time 1519.9217

 eigenvalue-minimisations  :  3672
 total energy-change (2. order) :-0.1512676E-01  (-0.9663581E-04)
 number of electron     239.9999996 magnetization 
 augmentation part        5.6448870 magnetization 

 Broyden mixing:
  rms(total) = 0.38493E-02    rms(broyden)= 0.38493E-02
  rms(prec ) = 0.62215E-02
  weight for this iteration     100.00

 eigenvalues of (default mixing * dielectric matrix)
  average eigenvalue GAMMA=   2.1966
  6.4404  2.7674  2.5700  1.8394  1.5060  1.5060  1.2172  0.9431  0.9804

 Free energy of the ion-electron system (eV)
  ---------------------------------------------------
  alpha Z        PSCENC =        93.67696837
  Ewald energy   TEWEN  =     38679.63810314
  -Hartree energ DENC   =    -46085.56576467
  -exchange      EXHF   =         0.00000000
  -V(xc)+E(xc)   XCENC  =       824.16281722
  PAW double counting   =     24701.98574375   -24742.58705705
  entropy T*S    EENTRO =        -0.00000000
  eigenvalues    EBANDS =     -2844.23507930
  atomic energy  EATOM  =      8829.28746127
  Solvation  Ediel_sol  =         0.00000000
  ---------------------------------------------------
  free energy    TOTEN  =      -543.63680727 eV

  energy without entropy =     -543.63680727  energy(sigma->0) =     -543.63680727


--------------------------------------------------------------------------------------------------------




--------------------------------------- Iteration      1(  15)  ---------------------------------------


    POTLOK:  cpu time    8.6832: real time    8.7170
    SETDIJ:  cpu time    0.2374: real time    0.2379
     EDDAV:  cpu time 1489.9537: real time 1494.9579
       DOS:  cpu time    0.0024: real time    0.0026
    CHARGE:  cpu time   75.0779: real time   75.3795
    MIXING:  cpu time    0.8431: real time    0.8450
    --------------------------------------------
      LOOP:  cpu time 1574.7977: real time 1580.1399

 eigenvalue-minimisations  :  3744
 total energy-change (2. order) :-0.9982410E-02  (-0.9039998E-04)
 number of electron     239.9999996 magnetization 
 augmentation part        5.6448609 magnetization 

 Broyden mixing:
  rms(total) = 0.19739E-02    rms(broyden)= 0.19739E-02
  rms(prec ) = 0.32388E-02
  weight for this iteration     100.00

 eigenvalues of (default mixing * dielectric matrix)
  average eigenvalue GAMMA=   2.3052
  7.3734  3.5633  2.3017  2.3017  1.4591  1.4591  1.3579  1.3579  0.9392  0.9392

 Free energy of the ion-electron system (eV)
  ---------------------------------------------------
  alpha Z        PSCENC =        93.67696837
  Ewald energy   TEWEN  =     38679.63810314
  -Hartree energ DENC   =    -46087.88063293
  -exchange      EXHF   =         0.00000000
  -V(xc)+E(xc)   XCENC  =       824.13432974
  PAW double counting   =     24706.33622021   -24746.93697600
  entropy T*S    EENTRO =        -0.00000000
  eigenvalues    EBANDS =     -2841.90226350
  atomic energy  EATOM  =      8829.28746127
  Solvation  Ediel_sol  =         0.00000000
  ---------------------------------------------------
  free energy    TOTEN  =      -543.64678968 eV

  energy without entropy =     -543.64678968  energy(sigma->0) =     -543.64678968


--------------------------------------------------------------------------------------------------------




--------------------------------------- Iteration      1(  16)  ---------------------------------------


    POTLOK:  cpu time    8.7102: real time    8.7547
    SETDIJ:  cpu time    0.2473: real time    0.2476
     EDDAV:  cpu time 1468.8578: real time 1473.4912
       DOS:  cpu time    0.0020: real time    0.0020
    CHARGE:  cpu time   75.2094: real time   75.3314
    MIXING:  cpu time    0.8666: real time    0.8676
    --------------------------------------------
      LOOP:  cpu time 1553.8934: real time 1558.6945

 eigenvalue-minimisations  :  3672
 total energy-change (2. order) :-0.4667056E-02  (-0.3358261E-04)
 number of electron     239.9999996 magnetization 
 augmentation part        5.6449835 magnetization 

 Broyden mixing:
  rms(total) = 0.11974E-02    rms(broyden)= 0.11974E-02
  rms(prec ) = 0.17761E-02
  weight for this iteration     100.00

 eigenvalues of (default mixing * dielectric matrix)
  average eigenvalue GAMMA=   2.3502
  7.9442  4.1029  2.3108  2.3108  1.9590  1.4963  1.4963  0.9123  0.9742  1.1726
  1.1726

 Free energy of the ion-electron system (eV)
  ---------------------------------------------------
  alpha Z        PSCENC =        93.67696837
  Ewald energy   TEWEN  =     38679.63810314
  -Hartree energ DENC   =    -46089.11943689
  -exchange      EXHF   =         0.00000000
  -V(xc)+E(xc)   XCENC  =       824.11549356
  PAW double counting   =     24703.39834383   -24743.99547812
  entropy T*S    EENTRO =        -0.00000000
  eigenvalues    EBANDS =     -2840.65291191
  atomic energy  EATOM  =      8829.28746127
  Solvation  Ediel_sol  =         0.00000000
  ---------------------------------------------------
  free energy    TOTEN  =      -543.65145674 eV

  energy without entropy =     -543.65145674  energy(sigma->0) =     -543.65145674


--------------------------------------------------------------------------------------------------------




--------------------------------------- Iteration      1(  17)  ---------------------------------------


    POTLOK:  cpu time    8.7393: real time    8.7620
    SETDIJ:  cpu time    0.2454: real time    0.2454
     EDDAV:  cpu time 1531.5010: real time 1537.0507
       DOS:  cpu time    0.0020: real time    0.0020
    CHARGE:  cpu time   75.0812: real time   75.4247
    MIXING:  cpu time    0.8937: real time    0.8958
    --------------------------------------------
      LOOP:  cpu time 1616.4626: real time 1622.3806

 eigenvalue-minimisations  :  3888
 total energy-change (2. order) :-0.1557864E-02  (-0.1089612E-04)
 number of electron     239.9999996 magnetization 
 augmentation part        5.6448383 magnetization 

 Broyden mixing:
  rms(total) = 0.64081E-03    rms(broyden)= 0.64081E-03
  rms(prec ) = 0.10056E-02
  weight for this iteration     100.00

 eigenvalues of (default mixing * dielectric matrix)
  average eigenvalue GAMMA=   2.3571
  8.3133  4.3520  2.4711  2.4711  2.0712  1.4228  1.4228  1.4042  1.4042  0.9198
  1.0165  1.0165

 Free energy of the ion-electron system (eV)
  ---------------------------------------------------
  alpha Z        PSCENC =        93.67696837
  Ewald energy   TEWEN  =     38679.63810314
  -Hartree energ DENC   =    -46089.86309322
  -exchange      EXHF   =         0.00000000
  -V(xc)+E(xc)   XCENC  =       824.12195413
  PAW double counting   =     24706.63167710   -24747.22963787
  entropy T*S    EENTRO =        -0.00000000
  eigenvalues    EBANDS =     -2839.91644754
  atomic energy  EATOM  =      8829.28746127
  Solvation  Ediel_sol  =         0.00000000
  ---------------------------------------------------
  free energy    TOTEN  =      -543.65301461 eV

  energy without entropy =     -543.65301460  energy(sigma->0) =     -543.65301461


--------------------------------------------------------------------------------------------------------




--------------------------------------- Iteration      1(  18)  ---------------------------------------


    POTLOK:  cpu time    8.7146: real time    8.7413
    SETDIJ:  cpu time    0.2488: real time    0.2488
     EDDAV:  cpu time 1453.4501: real time 1458.7624
       DOS:  cpu time    0.0024: real time    0.0026
    CHARGE:  cpu time   72.9159: real time   73.1253
    MIXING:  cpu time    0.8629: real time    0.8658
    --------------------------------------------
      LOOP:  cpu time 1536.1948: real time 1541.7462

 eigenvalue-minimisations  :  3768
 total energy-change (2. order) :-0.6374724E-03  (-0.3752465E-05)
 number of electron     239.9999996 magnetization 
 augmentation part        5.6448219 magnetization 

 Broyden mixing:
  rms(total) = 0.28447E-03    rms(broyden)= 0.28446E-03
  rms(prec ) = 0.57547E-03
  weight for this iteration     100.00

 eigenvalues of (default mixing * dielectric matrix)
  average eigenvalue GAMMA=   2.3681
  8.3415  4.9645  2.8434  2.4091  1.8450  1.8450  1.4925  1.4925  1.2986  1.2986
  0.9248  0.9897  1.0392

 Free energy of the ion-electron system (eV)
  ---------------------------------------------------
  alpha Z        PSCENC =        93.67696837
  Ewald energy   TEWEN  =     38679.63810314
  -Hartree energ DENC   =    -46090.13471985
  -exchange      EXHF   =         0.00000000
  -V(xc)+E(xc)   XCENC  =       824.12152683
  PAW double counting   =     24704.75565072   -24745.35349436
  entropy T*S    EENTRO =        -0.00000000
  eigenvalues    EBANDS =     -2839.64514821
  atomic energy  EATOM  =      8829.28746127
  Solvation  Ediel_sol  =         0.00000000
  ---------------------------------------------------
  free energy    TOTEN  =      -543.65365208 eV

  energy without entropy =     -543.65365208  energy(sigma->0) =     -543.65365208


--------------------------------------------------------------------------------------------------------




--------------------------------------- Iteration      1(  19)  ---------------------------------------


    POTLOK:  cpu time    8.3920: real time    8.4378
    SETDIJ:  cpu time    0.2392: real time    0.2393
     EDDAV:  cpu time 1511.3493: real time 1516.6872
       DOS:  cpu time    0.0020: real time    0.0020
    CHARGE:  cpu time   73.0814: real time   73.1441
    MIXING:  cpu time    0.8851: real time    0.8896
    --------------------------------------------
      LOOP:  cpu time 1593.9490: real time 1599.3999

 eigenvalue-minimisations  :  3984
 total energy-change (2. order) :-0.2306267E-03  (-0.1286416E-05)
 number of electron     239.9999996 magnetization 
 augmentation part        5.6448273 magnetization 

 Broyden mixing:
  rms(total) = 0.19710E-03    rms(broyden)= 0.19710E-03
  rms(prec ) = 0.39740E-03
  weight for this iteration     100.00

 eigenvalues of (default mixing * dielectric matrix)
  average eigenvalue GAMMA=   2.3293
  8.4304  5.1054  3.0315  2.3358  2.3358  1.9207  1.4577  1.4577  1.2829  1.2829
  0.9087  1.0130  1.0130  1.0354

 Free energy of the ion-electron system (eV)
  ---------------------------------------------------
  alpha Z        PSCENC =        93.67696837
  Ewald energy   TEWEN  =     38679.63810314
  -Hartree energ DENC   =    -46090.33040180
  -exchange      EXHF   =         0.00000000
  -V(xc)+E(xc)   XCENC  =       824.12121392
  PAW double counting   =     24705.38625334   -24745.98341024
  entropy T*S    EENTRO =        -0.00000000
  eigenvalues    EBANDS =     -2839.45007071
  atomic energy  EATOM  =      8829.28746127
  Solvation  Ediel_sol  =         0.00000000
  ---------------------------------------------------
  free energy    TOTEN  =      -543.65388270 eV

  energy without entropy =     -543.65388270  energy(sigma->0) =     -543.65388270


--------------------------------------------------------------------------------------------------------




--------------------------------------- Iteration      1(  20)  ---------------------------------------


    POTLOK:  cpu time    8.4143: real time    8.4470
    SETDIJ:  cpu time    0.2399: real time    0.2408
     EDDAV:  cpu time 1456.5828: real time 1461.8443
       DOS:  cpu time    0.0020: real time    0.0020
    CHARGE:  cpu time   73.0314: real time   73.1376
    MIXING:  cpu time    0.9030: real time    0.9056
    --------------------------------------------
      LOOP:  cpu time 1539.1734: real time 1544.5774

 eigenvalue-minimisations  :  3792
 total energy-change (2. order) :-0.1008780E-03  (-0.3071641E-06)
 number of electron     239.9999996 magnetization 
 augmentation part        5.6448165 magnetization 

 Broyden mixing:
  rms(total) = 0.12838E-03    rms(broyden)= 0.12838E-03
  rms(prec ) = 0.26485E-03
  weight for this iteration     100.00

 eigenvalues of (default mixing * dielectric matrix)
  average eigenvalue GAMMA=   2.3498
  8.4060  5.4285  3.3837  2.5926  2.2453  2.1268  1.5422  1.5422  1.3792  1.3792
  0.9198  1.0168  1.0168  1.1340  1.1340

 Free energy of the ion-electron system (eV)
  ---------------------------------------------------
  alpha Z        PSCENC =        93.67696837
  Ewald energy   TEWEN  =     38679.63810314
  -Hartree energ DENC   =    -46090.50251029
  -exchange      EXHF   =         0.00000000
  -V(xc)+E(xc)   XCENC  =       824.12127442
  PAW double counting   =     24704.86134950   -24745.45893215
  entropy T*S    EENTRO =        -0.00000000
  eigenvalues    EBANDS =     -2839.27769785
  atomic energy  EATOM  =      8829.28746127
  Solvation  Ediel_sol  =         0.00000000
  ---------------------------------------------------
  free energy    TOTEN  =      -543.65398358 eV

  energy without entropy =     -543.65398358  energy(sigma->0) =     -543.65398358


--------------------------------------------------------------------------------------------------------




--------------------------------------- Iteration      1(  21)  ---------------------------------------


    POTLOK:  cpu time    8.3739: real time    8.4294
    SETDIJ:  cpu time    0.2403: real time    0.2406
     EDDAV:  cpu time 1590.8866: real time 1597.1455
       DOS:  cpu time    0.0024: real time    0.0025
    CHARGE:  cpu time   75.1715: real time   75.4135
    MIXING:  cpu time    0.9665: real time    0.9686
    --------------------------------------------
      LOOP:  cpu time 1675.6412: real time 1682.2001

 eigenvalue-minimisations  :  4152
 total energy-change (2. order) :-0.7482935E-04  (-0.1938113E-06)
 number of electron     239.9999996 magnetization 
 augmentation part        5.6448212 magnetization 

 Broyden mixing:
  rms(total) = 0.87334E-04    rms(broyden)= 0.87334E-04
  rms(prec ) = 0.14786E-03
  weight for this iteration     100.00

 eigenvalues of (default mixing * dielectric matrix)
  average eigenvalue GAMMA=   2.3746
  8.4027  5.7044  3.8750  2.8206  2.4384  2.1207  1.8821  1.4846  1.4846  1.2945
  1.2945  1.2382  0.9217  0.9938  0.9938  1.0437

 Free energy of the ion-electron system (eV)
  ---------------------------------------------------
  alpha Z        PSCENC =        93.67696837
  Ewald energy   TEWEN  =     38679.63810314
  -Hartree energ DENC   =    -46090.66834952
  -exchange      EXHF   =         0.00000000
  -V(xc)+E(xc)   XCENC  =       824.12073000
  PAW double counting   =     24704.74325909   -24745.34078361
  entropy T*S    EENTRO =        -0.00000000
  eigenvalues    EBANDS =     -2839.11144717
  atomic energy  EATOM  =      8829.28746127
  Solvation  Ediel_sol  =         0.00000000
  ---------------------------------------------------
  free energy    TOTEN  =      -543.65405841 eV

  energy without entropy =     -543.65405841  energy(sigma->0) =     -543.65405841


--------------------------------------------------------------------------------------------------------




--------------------------------------- Iteration      1(  22)  ---------------------------------------


    POTLOK:  cpu time    8.6895: real time    8.7288
    SETDIJ:  cpu time    0.2465: real time    0.2469
     EDDAV:  cpu time 1370.4584: real time 1374.1585
       DOS:  cpu time    0.0024: real time    0.0317
    CHARGE:  cpu time   75.2859: real time   75.4222
    MIXING:  cpu time    0.9889: real time    0.9912
    --------------------------------------------
      LOOP:  cpu time 1455.6716: real time 1459.5793

 eigenvalue-minimisations  :  3336
 total energy-change (2. order) :-0.4557649E-04  (-0.1453413E-07)
 number of electron     239.9999996 magnetization 
 augmentation part        5.6448172 magnetization 

 Broyden mixing:
  rms(total) = 0.63558E-04    rms(broyden)= 0.63555E-04
  rms(prec ) = 0.79640E-04
  weight for this iteration     100.00

 eigenvalues of (default mixing * dielectric matrix)
  average eigenvalue GAMMA=   2.4350
  8.4495  6.4683  4.6482  2.9943  2.3467  2.3467  2.0452  1.5181  1.5181  1.4019
  1.4019  1.1849  1.1849  0.9181  0.9808  0.9934  0.9934

 Free energy of the ion-electron system (eV)
  ---------------------------------------------------
  alpha Z        PSCENC =        93.67696837
  Ewald energy   TEWEN  =     38679.63810314
  -Hartree energ DENC   =    -46090.78988404
  -exchange      EXHF   =         0.00000000
  -V(xc)+E(xc)   XCENC  =       824.12096297
  PAW double counting   =     24704.94013060   -24745.53767150
  entropy T*S    EENTRO =        -0.00000000
  eigenvalues    EBANDS =     -2838.99017481
  atomic energy  EATOM  =      8829.28746127
  Solvation  Ediel_sol  =         0.00000000
  ---------------------------------------------------
  free energy    TOTEN  =      -543.65410399 eV

  energy without entropy =     -543.65410399  energy(sigma->0) =     -543.65410399


--------------------------------------------------------------------------------------------------------




--------------------------------------- Iteration      1(  23)  ---------------------------------------


    POTLOK:  cpu time    8.5450: real time    8.6474
    SETDIJ:  cpu time    0.2473: real time    0.2475
     EDDAV:  cpu time 1347.5162: real time 1355.9205
       DOS:  cpu time    0.0021: real time    0.0021
    CHARGE:  cpu time   75.3459: real time   75.4687
    MIXING:  cpu time    1.0091: real time    1.0110
    --------------------------------------------
      LOOP:  cpu time 1432.6657: real time 1441.2971

 eigenvalue-minimisations  :  3264
 total energy-change (2. order) :-0.1789715E-04  ( 0.2550612E-08)
 number of electron     239.9999996 magnetization 
 augmentation part        5.6448157 magnetization 

 Broyden mixing:
  rms(total) = 0.35407E-04    rms(broyden)= 0.35404E-04
  rms(prec ) = 0.41272E-04
  weight for this iteration     100.00

 eigenvalues of (default mixing * dielectric matrix)
  average eigenvalue GAMMA=   2.4839
  8.4232  7.5181  4.9580  3.2202  2.4707  2.4707  1.9067  1.9067  1.4697  1.4697
  1.3697  1.2602  1.2602  0.9209  1.0878  0.9714  1.0130  1.0130

 Free energy of the ion-electron system (eV)
  ---------------------------------------------------
  alpha Z        PSCENC =        93.67696837
  Ewald energy   TEWEN  =     38679.63810314
  -Hartree energ DENC   =    -46090.82211413
  -exchange      EXHF   =         0.00000000
  -V(xc)+E(xc)   XCENC  =       824.12102369
  PAW double counting   =     24704.88629955   -24745.48385064
  entropy T*S    EENTRO =        -0.00000000
  eigenvalues    EBANDS =     -2838.95801314
  atomic energy  EATOM  =      8829.28746127
  Solvation  Ediel_sol  =         0.00000000
  ---------------------------------------------------
  free energy    TOTEN  =      -543.65412189 eV

  energy without entropy =     -543.65412188  energy(sigma->0) =     -543.65412189


--------------------------------------------------------------------------------------------------------




--------------------------------------- Iteration      1(  24)  ---------------------------------------


    POTLOK:  cpu time    8.7156: real time    8.7613
    SETDIJ:  cpu time    0.2503: real time    0.2545
     EDDAV:  cpu time 1328.9034: real time 1334.3461
       DOS:  cpu time    0.0022: real time    0.0029
    CHARGE:  cpu time   72.8706: real time   73.0992
    MIXING:  cpu time    0.9966: real time    0.9989
    --------------------------------------------
      LOOP:  cpu time 1411.7388: real time 1417.4629

 eigenvalue-minimisations  :  3216
 total energy-change (2. order) :-0.7684830E-05  ( 0.4321440E-08)
 number of electron     239.9999996 magnetization 
 augmentation part        5.6448171 magnetization 

 Broyden mixing:
  rms(total) = 0.11705E-04    rms(broyden)= 0.11699E-04
  rms(prec ) = 0.14365E-04
  weight for this iteration     100.00

 eigenvalues of (default mixing * dielectric matrix)
  average eigenvalue GAMMA=   2.5215
  8.7236  8.4663  5.1446  3.4215  2.4925  2.4925  1.9939  1.9939  1.4950  1.4950
  1.4911  1.3177  1.2274  1.2274  0.9218  0.9688  1.0226  1.0069  1.0069

 Free energy of the ion-electron system (eV)
  ---------------------------------------------------
  alpha Z        PSCENC =        93.67696837
  Ewald energy   TEWEN  =     38679.63810314
  -Hartree energ DENC   =    -46090.82920462
  -exchange      EXHF   =         0.00000000
  -V(xc)+E(xc)   XCENC  =       824.12095525
  PAW double counting   =     24704.92473336   -24745.52222903
  entropy T*S    EENTRO =        -0.00000000
  eigenvalues    EBANDS =     -2838.95091733
  atomic energy  EATOM  =      8829.28746127
  Solvation  Ediel_sol  =         0.00000000
  ---------------------------------------------------
  free energy    TOTEN  =      -543.65412957 eV

  energy without entropy =     -543.65412957  energy(sigma->0) =     -543.65412957


--------------------------------------------------------------------------------------------------------




--------------------------------------- Iteration      1(  25)  ---------------------------------------


    POTLOK:  cpu time    8.4016: real time    8.4671
    SETDIJ:  cpu time    0.2378: real time    0.2380
     EDDAV:  cpu time 1195.9936: real time 1205.9224
       DOS:  cpu time    0.0019: real time    0.0019
    CHARGE:  cpu time   72.8881: real time   73.0617
    MIXING:  cpu time    1.0412: real time    1.0423
    --------------------------------------------
      LOOP:  cpu time 1278.5642: real time 1288.7334

 eigenvalue-minimisations  :  2880
 total energy-change (2. order) :-0.1939123E-05  ( 0.8275556E-08)
 number of electron     239.9999996 magnetization 
 augmentation part        5.6448169 magnetization 

 Broyden mixing:
  rms(total) = 0.75691E-05    rms(broyden)= 0.75678E-05
  rms(prec ) = 0.85756E-05
  weight for this iteration     100.00

 eigenvalues of (default mixing * dielectric matrix)
  average eigenvalue GAMMA=   2.5404
  9.5349  8.4679  5.2560  3.6817  2.7329  2.3833  2.2203  2.0019  1.4802  1.4802
  1.4750  1.4750  1.2327  1.2327  0.9188  0.9942  0.9942  1.0561  1.0950  1.0950

 Free energy of the ion-electron system (eV)
  ---------------------------------------------------
  alpha Z        PSCENC =        93.67696837
  Ewald energy   TEWEN  =     38679.63810314
  -Hartree energ DENC   =    -46090.83196229
  -exchange      EXHF   =         0.00000000
  -V(xc)+E(xc)   XCENC  =       824.12098103
  PAW double counting   =     24704.94103204   -24745.53853056
  entropy T*S    EENTRO =        -0.00000000
  eigenvalues    EBANDS =     -2838.94818452
  atomic energy  EATOM  =      8829.28746127
  Solvation  Ediel_sol  =         0.00000000
  ---------------------------------------------------
  free energy    TOTEN  =      -543.65413151 eV

  energy without entropy =     -543.65413151  energy(sigma->0) =     -543.65413151


--------------------------------------------------------------------------------------------------------




--------------------------------------- Iteration      1(  26)  ---------------------------------------


    POTLOK:  cpu time    8.3952: real time    8.4236
    SETDIJ:  cpu time    0.2415: real time    0.2415
     EDDAV:  cpu time 1111.1790: real time 1114.4545
       DOS:  cpu time    0.0021: real time    0.0021
    CHARGE:  cpu time   73.0171: real time   73.0897
    MIXING:  cpu time    1.0446: real time    1.0467
    --------------------------------------------
      LOOP:  cpu time 1193.8795: real time 1197.2581

 eigenvalue-minimisations  :  2544
 total energy-change (2. order) :-0.6833434E-06  ( 0.8775103E-08)
 number of electron     239.9999996 magnetization 
 augmentation part        5.6448168 magnetization 

 Broyden mixing:
  rms(total) = 0.42846E-05    rms(broyden)= 0.42838E-05
  rms(prec ) = 0.47197E-05
  weight for this iteration     100.00

 eigenvalues of (default mixing * dielectric matrix)
  average eigenvalue GAMMA=   2.5181
  9.7145  8.4798  5.2711  3.8204  2.7886  2.3681  2.3681  2.0274  1.4750  1.4750
  1.6052  1.6052  1.2606  1.2606  1.2182  1.2182  0.9203  0.9841  0.9841  1.0180
  1.0180

 Free energy of the ion-electron system (eV)
  ---------------------------------------------------
  alpha Z        PSCENC =        93.67696837
  Ewald energy   TEWEN  =     38679.63810314
  -Hartree energ DENC   =    -46090.83273328
  -exchange      EXHF   =         0.00000000
  -V(xc)+E(xc)   XCENC  =       824.12098512
  PAW double counting   =     24704.93364291   -24745.53114075
  entropy T*S    EENTRO =        -0.00000000
  eigenvalues    EBANDS =     -2838.94741898
  atomic energy  EATOM  =      8829.28746127
  Solvation  Ediel_sol  =         0.00000000
  ---------------------------------------------------
  free energy    TOTEN  =      -543.65413219 eV

  energy without entropy =     -543.65413219  energy(sigma->0) =     -543.65413219


--------------------------------------------------------------------------------------------------------




--------------------------------------- Iteration      1(  27)  ---------------------------------------


    POTLOK:  cpu time    8.4623: real time    8.4883
    SETDIJ:  cpu time    0.2343: real time    0.2343
     EDDAV:  cpu time 1150.5639: real time 1153.8334
       DOS:  cpu time    0.0020: real time    0.0020
    CHARGE:  cpu time   72.9833: real time   73.1040
    MIXING:  cpu time    1.0710: real time    1.0727
    --------------------------------------------
      LOOP:  cpu time 1233.3167: real time 1236.7347

 eigenvalue-minimisations  :  2688
 total energy-change (2. order) :-0.1358967E-06  ( 0.9091097E-08)
 number of electron     239.9999996 magnetization 
 augmentation part        5.6448168 magnetization 

 Broyden mixing:
  rms(total) = 0.10313E-05    rms(broyden)= 0.10308E-05
  rms(prec ) = 0.13869E-05
  weight for this iteration     100.00

 eigenvalues of (default mixing * dielectric matrix)
  average eigenvalue GAMMA=   2.4851
  9.7948  8.4697  5.2900  3.8597  2.8550  2.5060  2.3409  2.0861  1.7457  1.4752
  1.4752  1.5013  1.5013  1.2594  1.2594  1.2782  1.0377  1.0377  0.9201  0.9592
  1.0093  1.0093

 Free energy of the ion-electron system (eV)
  ---------------------------------------------------
  alpha Z        PSCENC =        93.67696837
  Ewald energy   TEWEN  =     38679.63810314
  -Hartree energ DENC   =    -46090.83256801
  -exchange      EXHF   =         0.00000000
  -V(xc)+E(xc)   XCENC  =       824.12098070
  PAW double counting   =     24704.92779128   -24745.52529110
  entropy T*S    EENTRO =        -0.00000000
  eigenvalues    EBANDS =     -2838.94757799
  atomic energy  EATOM  =      8829.28746127
  Solvation  Ediel_sol  =         0.00000000
  ---------------------------------------------------
  free energy    TOTEN  =      -543.65413233 eV

  energy without entropy =     -543.65413233  energy(sigma->0) =     -543.65413233


--------------------------------------------------------------------------------------------------------




--------------------------------------- Iteration      1(  28)  ---------------------------------------


    POTLOK:  cpu time    8.4128: real time    8.4454
    SETDIJ:  cpu time    0.2579: real time    0.2588
     EDDAV:  cpu time 1135.9499: real time 1138.9409
       DOS:  cpu time    0.0024: real time    0.0027
    CHARGE:  cpu time   75.6448: real time   75.7481
    MIXING:  cpu time    1.0928: real time    1.0947
    --------------------------------------------
      LOOP:  cpu time 1221.3607: real time 1224.4907

 eigenvalue-minimisations  :  2616
 total energy-change (2. order) :-0.3881360E-07  ( 0.9148993E-08)
 number of electron     239.9999996 magnetization 
 augmentation part        5.6448168 magnetization 

 Broyden mixing:
  rms(total) = 0.81499E-06    rms(broyden)= 0.81487E-06
  rms(prec ) = 0.10342E-05
  weight for this iteration     100.00

 eigenvalues of (default mixing * dielectric matrix)
[...]
   C          32.940          3.389         10.089          0.841
   C          33.663          3.401         10.199          0.850
   C          33.369          3.396         10.155          0.846
   C          33.259          3.394         10.138          0.845
   C          33.429          3.397         10.164          0.847
   C          33.380          3.396         10.156          0.846
   C          33.193          3.393         10.128          0.844
   C          33.437          3.397         10.165          0.847
   C          33.325          3.395         10.148          0.846
   C          33.408          3.397         10.160          0.847
   C          33.143          3.392         10.120          0.843
   C          32.943          3.389         10.089          0.841
   C          33.533          3.399         10.179          0.848
   C          33.174          3.393         10.125          0.844
   C          32.949          3.389         10.090          0.841
   C          33.063          3.391         10.108          0.842
   C          32.685          3.384         10.050          0.837
   C          33.048          3.391         10.106          0.842
   C          33.270          3.394         10.139          0.845
   C          32.799          3.386         10.067          0.839
   C          33.323          3.395         10.147          0.846
   C          33.606          3.400         10.190          0.849
   C          33.430          3.397         10.164          0.847
   C          33.248          3.394         10.136          0.845
   C          33.776          3.403         10.216          0.851
   C          33.567          3.399         10.185          0.849
   C          33.474          3.398         10.170          0.848
   C          33.742          3.402         10.211          0.851
   C          33.108          3.392         10.115          0.843
   C          32.920          3.388         10.086          0.840
   C          33.089          3.391         10.112          0.843
   C          33.244          3.394         10.135          0.845
   C          33.228          3.394         10.133          0.844
   C          33.193          3.393         10.128          0.844
   C          32.551          3.382         10.029          0.836
   C          32.548          3.382         10.029          0.836
   C          32.979          3.389         10.095          0.841

  IVDW = 202
  VDW_RADIUS =    50.000 A
  VDW_SR =     0.830
  VDW_D =     6.000
  SCSRAD =   120.000 A
  LSCSGRAD = T
  LSCALER0 = T
  Edisp (eV):   -4.91168
    FORVDW:  cpu time 1107.4035: real time 1108.9554

  FORCE on cell =-STRESS in cart. coord.  units (eV):
  Direction    XX          YY          ZZ          XY          YZ          ZX
  --------------------------------------------------------------------------------------
  Alpha Z    93.67697    93.67697    93.67697
  Ewald   46652.29234 46562.68358-54535.36346    50.12571    12.65154     9.18533
  Hartree 45706.33521 45690.19685-45305.69951     2.71968     3.87085     4.12150
  E(xc)    -889.25014  -889.45583  -921.78956     0.18419     0.01744     0.02356
  Local  -94926.60234-94840.03548 96784.04874   -42.46473   -14.61884   -12.51548
  n-local  -206.07198  -206.65063  -187.50254     0.94490    -0.16028     0.10066
  augment   -22.91893   -22.73948   -21.19640    -0.07583    -0.01271    -0.00509
  Kinetic  3602.98702  3610.43874  4085.66921   -11.97662     0.44676    -0.75950
  Fock        0.00000     0.00000     0.00000     0.00000     0.00000     0.00000
  vdW        -5.86294    -5.87258     0.05468    -0.00547    -0.00371    -0.00246
  -------------------------------------------------------------------------------------
  Total       4.58521    -7.75787    -8.10187    -0.54815     2.19104     0.14852
  in kB       2.32707    -3.93725    -4.11184    -0.27820     1.11199     0.07538
  external pressure =       -1.91 kB  Pullay stress =        0.00 kB


 VOLUME and BASIS-vectors are now :
 -----------------------------------------------------------------------------
  energy-cutoff  :      850.00
  volume of cell :     3156.89
      direct lattice vectors                 reciprocal lattice vectors
    12.324200000  0.000000000  0.000000000     0.081141169  0.000000000  0.000000000
     0.000000000 12.807700000  0.000000000     0.000000000  0.078078031  0.000000000
     0.000000000  0.000000000 20.000000000     0.000000000  0.000000000  0.050000000

  length of vectors
    12.324200000 12.807700000 20.000000000     0.081141169  0.078078031  0.050000000


 FORCES acting on ions
    electron-ion (+dipol)            ewald-force                    non-local-force                 convergence-correction
 -----------------------------------------------------------------------------------------------
   0.697E+00 0.655E+00 -.319E+02   -.232E+01 -.193E+01 0.320E+02   0.203E-01 -.205E+01 -.236E+00   0.106E-06 -.490E-06 -.176E-06
   -.184E+02 -.113E+02 -.955E+02   0.193E+02 0.111E+02 0.956E+02   0.693E+00 -.502E+00 -.216E+01   0.661E-06 -.268E-06 -.147E-06
   -.905E+01 -.216E+01 -.682E+02   0.938E+01 0.245E+01 0.682E+02   0.224E+00 -.903E+00 -.580E+00   0.121E-06 -.858E-06 0.223E-06
   -.267E+02 -.681E+01 -.353E+02   0.294E+02 0.847E+01 0.353E+02   0.147E+01 0.679E+00 0.590E-01   0.964E-06 -.176E-06 -.349E-06
   0.140E+02 -.240E+02 0.449E+02   -.160E+02 0.262E+02 -.451E+02   -.679E+00 0.777E-01 0.185E+01   0.361E-06 -.452E-06 -.342E-06
   0.106E+02 -.764E+01 0.126E+02   -.125E+02 0.792E+01 -.127E+02   -.213E+01 0.109E+01 0.687E+00   0.242E-06 -.387E-06 -.303E-06
   -.168E+01 0.263E+00 0.163E+02   0.212E+01 0.403E+00 -.167E+02   -.249E+00 0.955E+00 0.114E+01   0.252E-06 -.281E-06 -.193E-06
   -.469E+01 -.133E+00 -.472E+02   0.557E+01 0.258E+00 0.478E+02   0.123E+01 0.586E+00 -.191E+01   0.239E-06 -.232E-06 -.510E-06
   -.160E+02 0.160E+01 -.402E+02   0.173E+02 -.250E+01 0.401E+02   0.476E+00 -.893E+00 -.148E+00   -.695E-06 -.837E-07 -.584E-06
   0.145E+02 -.131E+01 -.109E+02   -.156E+02 0.102E+01 0.109E+02   -.899E+00 -.669E+00 -.381E+00   -.397E-06 -.430E-06 -.291E-06
   -.134E+02 -.451E+01 0.849E+01   0.150E+02 0.515E+01 -.833E+01   0.608E+00 0.104E+00 -.356E+00   -.297E-06 -.259E-06 -.296E-06
   0.274E+01 0.801E+01 -.135E+02   -.281E+01 -.850E+01 0.137E+02   -.119E+01 -.246E+00 0.451E+00   -.398E-06 0.233E-06 -.436E-06
   0.255E+02 -.147E+02 -.170E+02   -.264E+02 0.169E+02 0.161E+02   -.123E+01 0.169E+01 0.141E+01   0.196E-06 -.467E-06 -.286E-06
   -.156E+01 0.167E+02 0.101E+03   0.229E+01 -.176E+02 -.102E+03   0.566E+00 0.380E+00 0.409E+01   -.477E-06 -.133E-06 -.142E-06
   0.354E+01 -.136E+02 0.151E+02   -.338E+01 0.146E+02 -.150E+02   -.380E+00 0.362E+00 -.186E+00   -.199E-06 -.284E-06 -.975E-07
   0.145E+02 -.324E+02 0.997E+01   -.170E+02 0.345E+02 -.933E+01   -.205E+01 0.474E+00 -.179E+01   -.823E-06 -.309E-06 -.590E-07
   -.159E+02 0.214E+01 0.286E+02   0.187E+02 -.359E+01 -.287E+02   0.267E+01 0.290E+01 0.166E+01   0.115E-06 -.445E-06 -.150E-06
   0.552E+01 0.118E+02 -.240E+02   -.715E+01 -.128E+02 0.236E+02   -.653E+00 -.875E+00 0.647E+00   -.619E-07 0.253E-06 0.594E-07
   0.105E+02 0.861E+01 -.606E+02   -.101E+02 -.106E+02 0.619E+02   0.268E+01 -.506E+00 -.387E+01   -.385E-07 -.338E-06 0.239E-06
   0.142E+02 -.156E+02 0.309E+02   -.153E+02 0.165E+02 -.310E+02   0.149E+01 0.118E+01 0.123E+01   -.302E-07 -.705E-06 -.129E-06
   -.105E+02 0.185E+02 0.650E+01   0.102E+02 -.210E+02 -.659E+01   0.147E+01 -.166E+01 0.123E+01   0.236E-06 -.502E-06 0.242E-06
   -.235E+02 -.544E+01 0.773E+02   0.243E+02 0.587E+01 -.775E+02   -.969E+00 0.184E+01 0.177E+01   0.641E-06 0.421E-06 0.400E-06
   0.211E+01 -.974E+01 0.958E+02   -.267E+01 0.923E+01 -.962E+02   -.159E+01 0.433E+00 0.224E+01   0.298E-06 0.190E-06 0.167E-06
   -.326E+02 0.174E+02 0.524E+02   0.366E+02 -.178E+02 -.523E+02   0.315E+01 0.131E+01 -.289E+00   0.126E-05 0.223E-06 0.170E-06
   0.122E+02 0.691E+01 0.369E+02   -.141E+02 -.832E+01 -.365E+02   -.171E+01 -.120E+01 -.330E+00   0.938E-06 0.645E-07 0.707E-07
   -.113E+02 0.164E+01 0.432E+02   0.129E+02 -.208E+01 -.442E+02   0.233E+01 -.276E+01 0.203E+01   -.280E-07 -.178E-06 -.510E-07
   0.856E+01 -.112E+02 -.872E+02   -.102E+02 0.125E+02 0.888E+02   0.220E+00 0.617E+00 -.452E+01   0.530E-06 0.593E-06 0.235E-06
   -.113E+02 -.698E+01 0.659E+02   0.118E+02 0.810E+01 -.661E+02   -.437E+00 -.135E+01 0.431E+00   -.174E-06 -.489E-07 0.764E-07
   0.622E+00 -.217E+01 0.467E+02   0.976E-01 0.241E+01 -.466E+02   0.948E+00 0.236E+00 0.590E+00   -.343E-06 -.203E-06 -.135E-06
   0.102E+02 -.665E+01 0.292E+00   -.104E+02 0.691E+01 -.394E-01   0.491E+00 0.176E+01 -.102E+01   -.266E-06 0.385E-06 -.107E-06
   -.132E+01 -.316E+01 -.144E+02   0.104E+01 0.399E+01 0.146E+02   0.470E-01 0.119E+01 -.110E+01   0.353E-06 0.434E-06 -.226E-06
   0.921E+01 0.142E+02 -.671E+00   -.102E+02 -.155E+02 0.470E+00   -.998E+00 0.870E+00 0.345E+00   -.286E-07 0.130E-06 -.207E-06
   -.496E+01 0.529E+01 -.513E+02   0.630E+01 -.525E+01 0.517E+02   -.753E+00 -.758E-01 -.239E+01   -.307E-06 0.188E-06 -.237E-07
   -.136E+02 0.248E+01 0.167E+01   0.153E+02 -.355E+01 -.105E+01   0.673E+00 -.318E+01 -.103E+01   -.305E-06 0.102E-06 0.115E-06
   0.171E+02 0.659E+01 0.843E+02   -.191E+02 -.634E+01 -.850E+02   0.596E+00 0.169E+01 0.270E+01   -.434E-06 0.189E-06 -.123E-06
   -.573E+01 0.279E+01 0.312E+02   0.702E+01 -.330E+01 -.315E+02   -.442E+00 -.194E+01 0.106E+01   -.665E-06 0.332E-06 0.893E-07
   0.201E+02 -.787E+01 0.597E+02   -.226E+02 0.956E+01 -.609E+02   -.226E+01 0.226E+01 0.333E+01   -.519E-06 -.467E-06 -.124E-07
   -.925E+00 0.635E+01 0.296E+02   0.179E+01 -.723E+01 -.300E+02   0.194E+00 -.228E+00 0.841E+00   0.225E-06 0.317E-06 0.246E-06
   0.121E+02 0.936E+01 -.366E+02   -.125E+02 -.921E+01 0.369E+02   -.137E+01 -.447E+00 -.120E+01   -.937E-06 0.311E-06 0.355E-06
   0.193E+02 -.213E+02 -.532E+02   -.210E+02 0.237E+02 0.543E+02   0.337E+00 0.663E+00 -.327E+01   -.483E-06 0.189E-06 0.575E-06
   -.425E+01 0.100E+02 -.313E+02   0.386E+01 -.103E+02 0.319E+02   0.389E+00 0.177E+01 -.130E+01   0.634E-06 0.106E-05 0.338E-06
   -.214E+02 0.429E+01 -.115E+03   0.219E+02 -.391E+01 0.116E+03   -.890E+00 0.132E+00 -.356E+01   0.517E-06 -.220E-06 -.276E-06
   -.263E+02 -.503E+01 -.643E+02   0.298E+02 0.693E+01 0.645E+02   0.389E+00 -.195E+00 -.222E+00   0.538E-06 0.299E-06 -.137E-06
   -.464E+01 -.920E+01 -.540E+02   0.478E+01 0.999E+01 0.535E+02   0.113E+01 0.251E+00 0.599E+00   0.492E-06 -.206E-07 -.142E-06
   -.218E+02 0.710E+01 -.159E+02   0.228E+02 -.728E+01 0.152E+02   0.757E+00 -.619E+00 0.633E+00   0.129E-06 0.427E-06 -.199E-06
   0.418E+01 -.218E+01 0.143E+03   -.486E+01 0.273E+01 -.144E+03   0.876E-01 -.147E+01 0.330E+01   0.301E-06 -.550E-08 -.779E-07
   0.810E+01 0.253E+02 0.619E+02   -.896E+01 -.280E+02 -.618E+02   0.359E+00 -.215E+01 0.819E+00   0.689E-06 0.140E-06 -.506E-06
   -.571E+01 0.179E+02 0.556E+02   0.592E+01 -.197E+02 -.551E+02   0.313E+00 -.236E+01 0.216E+00   -.303E-07 0.701E-06 -.249E-06
   0.267E+02 0.300E+01 0.101E+02   -.290E+02 -.365E+01 -.101E+02   -.873E+00 -.148E+00 -.574E+00   0.492E-06 0.436E-06 -.249E-06
   0.193E+02 -.202E+02 -.757E+02   -.204E+02 0.224E+02 0.758E+02   -.159E+01 0.198E+01 -.105E+01   0.927E-07 -.800E-06 -.520E-06
   -.280E+02 0.615E+01 -.165E+02   0.305E+02 -.554E+01 0.174E+02   0.852E+00 0.763E+00 -.974E+00   -.101E-05 -.336E-06 -.600E-06
   0.863E+01 -.292E+01 0.267E+02   -.875E+01 0.299E+01 -.273E+02   0.175E-01 0.216E+00 0.141E+01   -.318E-06 0.417E-06 -.155E-06
   -.309E+01 0.179E+01 0.251E+02   0.360E+01 -.262E+01 -.248E+02   0.127E+01 0.128E+01 -.946E+00   -.572E-06 0.656E-06 -.347E-07
   0.157E+02 0.816E+01 0.626E+02   -.178E+02 -.984E+01 -.641E+02   -.977E+00 -.167E+01 0.452E+01   -.783E-06 -.996E-07 -.305E-06
   0.165E+02 0.142E+02 -.120E+03   -.163E+02 -.162E+02 0.121E+03   -.734E+00 -.926E+00 -.361E+01   0.357E-07 -.332E-06 -.325E-06
   -.367E-01 0.580E+01 0.306E+02   0.107E+01 -.541E+01 -.303E+02   0.171E+01 0.638E+00 -.254E-01   -.176E-06 0.209E-06 -.959E-07
   0.105E+02 -.113E+02 -.225E+02   -.117E+02 0.125E+02 0.222E+02   -.146E+01 -.431E+00 -.576E+00   -.530E-06 0.881E-06 0.134E-06
   -.905E+01 0.227E+02 0.318E+01   0.978E+01 -.261E+02 -.445E+01   -.886E+00 -.424E+01 0.224E+01   0.394E-07 -.195E-06 -.333E-06
   0.106E+02 0.442E+01 -.103E+03   -.123E+02 -.338E+01 0.105E+03   -.880E+00 0.390E+01 -.515E+01   -.581E-06 0.127E-06 0.281E-06
   -.129E+01 -.120E+02 -.115E+02   0.159E+01 0.137E+02 0.115E+02   -.944E+00 -.122E+01 0.277E+00   -.129E-07 0.184E-06 0.130E-07
 -----------------------------------------------------------------------------------------------
   -.679E+00 0.701E+00 0.903E+00   0.284E-13 -.206E-12 -.551E-13   0.632E+00 -.647E+00 -.918E+00   -.220E-06 0.870E-07 -.555E-05
 
 
 POSITION                                       TOTAL-FORCE (eV/Angst)
 -----------------------------------------------------------------------------------
     12.28668      0.09962     10.16775        -1.595581     -3.327110     -0.178131
      1.17135      2.19893     10.26654         1.611434     -0.721599     -2.069711
     12.26047      2.90757     10.20411         0.559925     -0.601171     -0.567453
      1.13647      0.75674     10.16315         4.153449      2.333176      0.048865
      2.44761      0.04765      9.94452        -2.755031      2.331470      1.714578
      3.76053      2.08112      9.97480        -4.065853      1.360559      0.578754
      2.47227      2.82593      9.97046         0.190482      1.613402      0.728528
      3.66967      0.69105     10.10702         2.090985      0.715300     -1.349656
      4.91847      0.01049     10.11875         1.772944     -1.787812     -0.228051
      6.22866      2.12487     10.01102        -2.003629     -0.951139     -0.350404
      4.92106      2.81348      9.94209         2.153721      0.751374     -0.200393
      6.23405      0.68804     10.07248        -1.261349     -0.744539      0.579784
      7.47258     12.68967     10.11006        -2.136606      3.846947      0.557953
      8.62084      2.07044      9.79648         1.290976     -0.554477      2.623132
      7.44047      2.80315      9.93968        -0.210213      1.358174     -0.090896
      8.70132      0.59235     10.00067        -4.556134      2.664955     -1.157945
      9.79947     12.65948     10.01077         5.442717      1.454013      1.579988
     11.06540      2.16674     10.11492        -2.283022     -1.870117      0.213008
      9.76988      2.86284     10.10064         3.003823     -2.518821     -2.605196
     11.02109      0.67377     10.01711         0.359213      2.134480      1.101997
     12.24015      4.33564      9.98530         1.213187     -4.169553      1.139196
      1.21942      6.34811      9.76963        -0.195059      2.258588      1.562649
      0.04225      7.10873      9.76138        -2.140923     -0.069333      1.861833
      1.08668      4.96041      9.82406         7.084435      0.872366     -0.163818
      2.48871      4.30327      9.83609        -3.617109     -2.606326      0.125773
      3.60617      6.49741      9.85036         3.903973     -3.191137      1.008245
      2.42559      7.11515     10.10607        -1.459313      1.997209     -2.934917
      3.67391      5.03151      9.75958         0.050569     -0.220572      0.296950
      4.88169      4.24333      9.82105         1.665276      0.466385      0.697941
      6.13608      6.30755      9.91578         0.291537      2.015643     -0.765984
      4.91039      7.08510      9.94972        -0.236942      2.018805     -0.850936
      6.18677      4.91672      9.93741        -2.025834     -0.449151      0.143562
      7.43910      4.26623     10.05208         0.579486     -0.041475     -1.943277
      8.62460      6.52356      9.93097         2.364865     -4.231857     -0.406820
      7.37252      7.04698      9.76460        -1.339720      1.942645      1.953235
      8.64320      5.06992      9.89460         0.853168     -2.440905      0.772097
      9.91544      4.21510      9.88222        -4.769863      3.945730      2.110270
     11.09131      6.42483      9.90629         1.043479     -1.111659      0.383037
      9.92874      7.17364     10.04582        -1.761494     -0.307540     -0.987361
     11.06647      4.96714     10.06601        -1.407820      3.067904     -2.126261
      0.02284      8.50364     10.08011        -0.009866      1.507703     -0.772693
      1.24394     10.73385     10.31542        -0.442500      0.510733     -2.983925
     12.31282     11.46049     10.25120         3.889424      1.699573     -0.022594
      1.19993      9.28116     10.17438         1.255757      1.033420      0.107073
      2.41994      8.60668     10.03513         1.770157     -0.795004     -0.056320
      3.68361     10.77742      9.66705        -0.599324     -0.927872      2.417350
      2.43866     11.51549      9.87884        -0.505826     -4.791719      0.927866
      3.66568      9.37685      9.81732         0.523997     -4.154483      0.763680
      4.96197      8.56001      9.91668        -3.240308     -0.805394     -0.569449
      6.25105     10.55620     10.19580        -2.598646      4.135665     -0.942181
      4.90577     11.35265     10.02477         3.326174      1.366613     -0.072620
      6.19243      9.20170      9.93265        -0.100435      0.287396      0.761869
      7.36581      8.46019      9.88858         1.776995      0.443574     -0.632954
      8.71329     10.63969      9.96296        -3.049762     -3.351673      3.037442
      7.47527     11.33940     10.30890        -0.556410     -2.878691     -2.639948
      8.59815      9.18516      9.93301         2.729516      1.034333      0.339754
      9.95789      8.56839     10.06021        -2.644081      0.764005     -0.871460
     11.16899     10.80037     10.12267        -0.152182     -7.647307      0.975312
      9.91961     11.24048     10.25757        -2.590387      4.915202     -2.825066
     11.17503      9.29044     10.08472        -0.640440      0.421097      0.254696
 -----------------------------------------------------------------------------------
    total drift:                               -0.047135      0.053725     -0.014961


--------------------------------------------------------------------------------------------------------



  FREE ENERGIE OF THE ION-ELECTRON SYSTEM (eV)
  ---------------------------------------------------
  free  energy   TOTEN  =      -548.56580798 eV

  energy  without entropy=     -548.56580798  energy(sigma->0) =     -548.56580798
 


--------------------------------------------------------------------------------------------------------


    POTLOK:  cpu time  116.3658: real time  116.4812


--------------------------------------------------------------------------------------------------------


     LOOP+:  cpu time47961.2479: real time48122.1936
    4ORBIT:  cpu time    0.0000: real time    0.0000

 total amount of memory used by VASP MPI-rank0   327965. kBytes
=======================================================================

   base      :      30000. kBytes
   nonlr-proj:       7197. kBytes
   fftplans  :      19738. kBytes
   grid      :      71236. kBytes
   one-center:        184. kBytes
   wavefun   :     199610. kBytes
 
  
  
 General timing and accounting informations for this job:
 ========================================================
  
                  Total CPU time used (sec):    48274.840
                            User time (sec):    43077.344
                          System time (sec):     5197.498
                         Elapsed time (sec):    48437.368
  
                   Maximum memory used (kb):      496988.
                   Average memory used (kb):           0.
  
                          Minor page faults:     20345540
                          Major page faults:          135
                 Voluntary context switches:         1871
