159
Lattice="10.0 0.0 0.0 0.0 10.0 0.0 0.0 0.0 10.0" Properties=species:S:1:pos:R:3:forces:R:3 Time=1.0 energy=76.12478988374919 stress="0.6342621925281455 -0.05724148147514281 0.06695348825798791 -0.05724148147514281 0.6780709406035185 0.046278682222984584 0.06695348825798791 0.046278682222984584 0.7716267773053457" pbc="T T T"
C        0.18288972       9.89055453       4.16302815      16.01062314       4.16952565       7.16032903
C        9.51409936       2.57093471       3.84011269      -3.72055521       3.67859429      -1.48496305
C        3.34831190       1.98476467       0.05559701     -26.15424113       5.47934903      18.79262323
C        4.15566143       2.93527094       2.99951136      -1.63170738      -0.44247668      -0.94101603
C        0.15311139       8.84922213       0.80257324      -2.46602300       2.38661608      -0.06545524
C        4.50046532       9.13937876       3.31146431      -0.09845484       1.70048134      -4.82930617
C        7.32143456       7.35255540       1.02230818       0.35580656      -2.01280264       4.72651701
C        9.68177356       2.35493953       6.59142215      -0.57205836       0.49270098      -5.17885255
C        3.91819627       9.92944019       9.72594826      -0.19128919      -7.77496818      -6.34430280
C        9.43144447       4.46223488       0.97201090       1.72294302      -3.54124706       1.37655351
C        3.00764425       0.24994955       4.66670575      -1.22119335      -2.56534296       2.92335562
C        0.72651601       6.40815762       1.63548347       5.78852867      -6.28006191       2.69291293
C        0.90985507       5.49341858       7.41799193       2.97225473      -1.63600200       3.15276132
C        0.13356814       9.83128570       5.46447931      10.01918796      -0.99016366       0.44628728
C        9.24176236       7.03916009       9.41584972      -1.72308574      -2.16056247      -1.56694016
C        1.60397923       5.48795181       3.70141784       3.32753233       2.06094890       0.28252470
C        5.48891562       7.92772014       9.73197695      -0.19487022       3.41434805       0.88032432
C        9.74679887       2.65720048       8.20535702      -2.23893638       3.36544227      -0.42047969
C        6.43541052       8.75972988       5.74214929      -1.48756573       0.97795203       1.33971393
C        7.76454390       8.06785254       2.23117056      -0.23612046      -0.08418399      -0.61061479
C        2.00962700       3.11673067       1.70291372      -1.06398255       0.17061608       2.81977336
C        2.96131696       9.39668180       8.73816521      -0.82857251      -3.93987172      -2.93921679
C        9.23874747       9.40666986       6.93316340      -1.75152603      -0.24821280       0.77712754
C        6.16318173       5.38837624       3.07186986      -2.90325594       0.74625364       5.57735101
C        2.22216406       3.41017898       9.31002176       0.35655889      13.14400786     -18.68154136
C        9.53099533       1.61641008       9.35495434       7.86757279      -6.23220986       3.21533748
C        1.11751575       1.62662393       5.75296362       1.19210929      -2.01636480       0.95858324
C        1.23726304       1.38277477       3.50442426       4.97354094       1.51592495       0.65277452
C        0.92299686       6.32919751       8.66332144       5.41207438       2.79324668      -4.06366333
C        4.68835735       7.72735367       0.77262388      -2.05554559      -6.04943515       0.28723629
C        9.27163301       6.99938379       4.94738687      -0.62305099      -1.71489056      -4.39695268
C        7.57414192       3.73147353       0.14221649      -4.94446749       1.51156594      -0.32704058
C        8.79416097       1.59930214       1.18528826      -6.35593710      -2.26993790       3.92258742
C        7.40184708       1.31568191       6.25994039      -0.52971848       1.59935425       1.08131169
C        7.49903679       1.57798389       2.04315915       0.04554596       1.21671217      -0.34648939
C        8.49169986       4.74370182       9.08993035      -0.03083385       3.17886166      -3.00148639
C        5.89706665       1.28405893       8.17780858      -4.35599817       1.49035018      -1.24205581
C        7.17919436       2.85710473       4.21752019       0.74778627      -3.50463621       4.37524641
C        1.42123131       5.49320263       5.14851158      -4.59971097       3.59832360       0.64622802
C        5.80154567       8.92832288       2.88974459       4.85208790      -4.72699602       0.08958111
C        6.64714760       2.45042254       5.48847309       2.82955873       0.28822980      -3.30500493
C        4.40027344       3.83678198       5.37631480      -1.66367737      -2.31369179       3.73159831
C        6.29822504       5.04622705       1.62030405       2.97024431      -1.48135460       4.07337770
C        4.80930893       1.56805879       7.22142475       1.15634019       1.00710354      -0.34981173
C        2.23475342       2.82947467       0.07661802       3.52083635     -15.27741139      22.39573082
C        7.96310789       4.09582495       4.24325058       1.79007652      -2.39870055      -2.14108059
C        7.37476510       1.55165620       3.52934508       0.78910766       2.85468540      -0.53275124
C        7.58177563       5.52651359       3.71247604      -0.34549521       0.29007625      -2.86364126
C        3.24753999       9.27636410       7.36518417       3.36566666      -3.01995783       0.93812907
C        7.96274498       6.37200306       7.42264099      -4.95180970       0.53965272       0.27909032
C        6.25110575       9.45493435       1.57184207      -2.22905726      -6.04564596       2.29010547
C        7.54273065       5.91475794       1.29216416      -0.10515496       1.71468304       1.19733656
C        5.37288004       1.67838828       4.87825729       1.04574804      -0.30351805       0.31707154
C        4.12886327       1.88252974       9.55148455      24.12233178      -1.27123984     -17.15327746
C        8.43277823       0.43774178       9.53368707      -3.94107903      -3.07616041      -4.42694414
C        8.79172449       1.26128644       4.17166829      -3.13617797       9.43179265      -0.21095619
C        9.51143425       0.12915793       3.34646311      -8.31305059       5.61527060      -7.10143950
C        4.92037874       2.66635347       1.85691593      -3.20938462      -4.21523946       3.16141620
C        6.73546559       8.57537491       7.33283503      -0.09140308       2.17123624       1.34777633
C        4.54467584       6.13453365       6.32723074       0.94085709       0.56086921      -1.86905388
C        0.73864028       7.43488060       0.56632566      36.29653159     -10.88916293      15.37871513
C        9.57108243       4.76056207       2.44073439      -5.18601270      -3.16851991      -0.31477576
C        0.89466817       3.97741629       1.55434997       5.04261040       4.75093894      -2.57179347
C        8.46157172       5.88148153       2.56062257      -2.64109521       0.19951951       1.36637624
C        3.10561973       1.11143804       1.35737928       0.11886285       3.04714444       4.49532848
C        0.78398602       1.00244063       6.97881662       1.79032831       3.67389253      -8.39446478
C        4.55809645       9.09793893       7.06456524      -3.99868325       2.72693397       0.80636345
C        5.09157930       0.77333000       6.01718566       1.98163253       7.38676090       2.35405609
C        7.03172428       4.78358912       9.32048724      -0.61058434      -3.81398677       1.43318281
C        4.95719093       5.16523768       0.77430036       1.19301744       7.20799157      -1.21104674
C        2.06616549       5.47629705       6.43995522      -2.13659833      -1.07948542       0.34060152
C        3.41553664       5.21968458       7.00740422      -0.99075462      -1.93180754       0.89793503
C        6.75140854       7.05996501       7.81375204       2.38211432      -4.38669990      -1.58237028
C        2.97898144       3.70046397       2.64755192       0.68060028       2.17578001       1.68055352
C        5.18768728       5.56351396       3.95472510       0.84206959      -2.58080446      -3.77730061
C        9.35397491       9.21573122       4.11204797     -10.24024592     -12.03804666      -1.00091367
C        3.75690834       5.24017877       8.46943715       5.64817739       0.59452712       0.71101642
C        2.23683574       7.68127987       0.30275735      -1.05711577      -2.65230935       0.01252852
C        0.31952678       0.91972786       0.05686495     -76.99514711     -29.17534557      79.22629642
C        4.09897972       9.62515216       4.69644852      -2.47715234       0.03128517       0.41998104
C        0.72717617       3.44595215       9.10641865      -4.28265629       3.95760723       0.93133718
C        7.76111527       6.56700701       4.91955806       0.29436512       1.15698596       0.20472809
C        6.82260518       8.18069669       3.39025586      -2.19450858       3.29453034       0.92057425
C        9.59468850       9.24267705       9.65963355      -1.26322054       0.60173553       2.54276856
C        8.24561524       5.08085890       0.19642586      -0.38335553      -1.71533059       1.58503819
C        9.05631133       6.02999813       8.41094427      -3.58447423       3.93168290       2.79317802
C        0.99159329       6.52297851       2.95647144       2.87963358       1.70326731      -0.18520690
C        1.84488338       8.64612442       9.09430909       4.18924612      -2.63809887      -3.32369521
C        6.39352704       2.40163266       1.49636378       1.32539913       4.30109938      -1.57691973
C        9.89399559       7.67383920       0.30690690     -31.47877506       5.68797843     -14.06985188
C        3.37044644       8.65950695       2.65677051       4.52131415      -1.84347734      -2.36267937
C        8.83830755       1.18348192       5.77290978      -5.91578613       1.09757814      -3.41356464
C        3.75931194       3.75907266       6.57154655       5.28931103      -2.44953622      -3.64075362
C        0.49245396       4.12101052       7.82037481       1.99447386       2.80808611       0.88456416
C        6.90723025       3.75936117       1.40392926      -3.45570172       0.19669761      -2.13334583
C        6.87258848       3.65402279       6.47525834       2.80488923       1.27841758      -0.84641356
C        2.20196128       5.18850430       0.22504880      -6.59194644      -4.86541489      19.73395057
C        5.92996902       2.20758016       0.08886365       7.26937933       9.95969000      13.99628794
C        7.32980358       3.14997092       7.85546696       0.64228320      -2.31474369      -1.53267760
C        1.88529948       6.02136805       9.66678878      -2.85744810      14.77690922     -10.07325079
C        0.06370349       5.82777328       5.37859813       3.58810966       2.37649474      -2.83394476
C        3.77386288       5.80812889       3.76858350      -0.34457827       0.18476700       1.71718617
C        4.52734453       2.80217396       4.39256924       1.94019976       2.01612621       2.01443890
C        6.08689547       8.19641614       0.73548663      -0.79171453      -0.46522330       5.53656049
C        9.31982633       7.88264386       3.87356140      -3.19256662      -5.55014507       0.72902177
C        7.02700770       7.82682832       4.74412260       0.00555785       0.58253643      -4.97614292
C        4.87600124       8.73676002       5.70838728      -1.89877668      -3.99684595       4.28710175
C        0.76186658       1.11738646       9.61194404      70.18920487      35.35846472     -77.94282708
C        3.50885234       7.04577064       4.45359648       2.47703806      -0.57163625       0.88212414
C        3.44791464       8.23096990       1.33265576       3.83709994       1.80800989       4.34283067
C        5.62698246       6.06989825       7.44501531      -1.02835940      -1.28475013       2.55509601
C        4.54027793       2.79915735       0.44933352       0.74721875       1.30426317       1.56580429
C        1.19480483       7.76860638       3.55756771       2.93895901      -0.99983912      -2.43885734
C        3.30768931       2.55911747       8.67465864       3.01548546       0.15578130      -4.94311585
C        6.25428593       5.05844430       6.35491198       2.00440533       0.45045751      -1.31986172
C        9.05514505       3.73546300       3.39503803      -0.14548362      -4.03150238       4.85505179
C        2.76986163       4.82588185       9.45843065      11.25608777     -10.20696756     -17.74993859
C        5.28536049       9.28348477       9.39562493      -2.91143841       0.73933068      -4.82724017
C        0.48490873       0.94567061       1.47423977       2.21474628      -3.13098218      -0.92331710
C        1.77675662       1.66647799       2.10159132      -1.01067161       1.33164724      -0.61872379
C        6.47723092       0.02709867       6.46250509      -0.64885866      -0.26034344      -5.67043571
C        3.86497592       2.60831840       7.39660356       3.25731293       0.00084776       1.60707552
C        0.64727450       9.41706936       1.93325364      -4.78717423      -0.66172970      -3.70461189
C        5.15366506       5.13571882       5.35503435      -0.05570451      -0.47064132       0.35647710
C        7.27305532       1.73083447       7.66852397      -0.89036691      -3.27942052      -0.50942704
C        7.73054229       0.52497350       8.30187222       3.35315316      -1.49581549       1.13413619
C        8.72974819       3.67999505       8.05679072      -1.13800140      -2.18967864       0.84265771
C        2.24218227       8.95729859       6.35858127       2.57140934      -0.06242526       3.88592992
C        0.33560832       2.81199184       5.55547451      -0.38320138      -5.64095231       3.79907094
C        6.06372487       5.74746906       9.75493969      -1.64196689       1.15106999      -6.15676603
C        7.60217025       5.69326426       6.15110768      -0.56011817      -0.21981778      -0.32403681
C        2.68319879       9.19171322       5.03518404       0.23073840      -0.93128095       1.26383309
C        2.82895163       4.95577453       3.26948811       0.66557731       0.95604727       1.74827273
C        0.51630213       8.90965454       3.22433087       7.44007052      -4.53308227      -7.00951529
C        9.05780459       7.33189673       2.59295185      -4.65694326       1.27820707       4.33948643
C        4.37286052       7.34862035       5.53694488      -3.96323527      -2.90633055      -4.17659000
C        8.12907678       4.29189778       5.81249227      -1.89509297       0.31371881       2.08025407
C        9.31434480       3.87657102       6.59879291      -2.41611450      -0.53693678       1.03957938
C        9.97905213       3.38785951       0.13010963       2.64719688       4.97126800      -0.18741272
C        4.13720531       1.54066923       2.34979336       2.00066393      -0.11127761      -2.35393125
C        6.05929855       0.72318744       3.87126802      -2.95461322       4.96648732      -1.01988356
C        7.77138328       9.45414036       1.60395633      -4.80181710     -12.64093774       4.74025587
C        1.01215833       8.32172049       6.88939382       6.31647384      -0.49539985       4.51203720
C        7.92614925       9.21199661       7.85317437      -1.79384456       5.81618876       0.57994344
C        5.60890752       9.39144183       7.88181811      -4.17853153      -3.76493720      -1.98862413
C        6.52661223       3.55451964       9.03108107       5.62508994       1.94335863       0.50408065
C        1.13231188       7.75756786       8.21092650       3.67375289       3.57490812      -1.05852181
C        5.52699497       1.53163887       9.50320357      -6.12050826      -8.02839092     -17.84496567
C        6.61560328       7.10490141       9.43015903      -3.39045113      -3.00327666      -0.73434035
C        8.23112954       9.04663974       9.29193846       4.83489350       2.96951496       0.70720795
C        9.10159868       9.93664558       5.43743877      -8.66627503       2.21329172       6.63362517
C        1.18453591       5.24209242       1.09881001      -2.30201446      -1.66185171       5.13735982
C        2.94659262       6.33797885       0.30971742       0.86512990       9.68956768      -0.47933465
C        2.56575194       8.08781670       3.96869770       0.22388347      -3.60047117       0.43734389
C        4.30936685       6.37278576       0.61228494      -2.85376382      -1.59093652       0.24114301
C        5.04767447       5.57094405       8.67045021      -4.56545538       1.01648507      -6.37009849
C        4.93652851       0.48568153       2.82739593       0.37097699       4.56005418       3.91688505
C        2.03325973       1.30869362       4.76054823      -4.66356164      -1.41504047      -1.01530915
C        7.91104245       0.38931197       1.25861879       5.30586071      13.43421412      -1.03276998
159
Lattice="10.0 0.0 0.0 0.0 10.0 0.0 0.0 0.0 10.0" Properties=species:S:1:pos:R:3:forces:R:3 Time=2.0 energy=61.724796593730765 stress="0.7160684567450826 -0.06008945008465269 0.06731532494733174 -0.06008945008465269 0.743098202449686 0.035931241708129 0.06731532494733174 0.035931241708129 0.8353406887901079" pbc="T T T"
C        0.24432284       9.90348625       4.19625358       5.65307248       0.08755707       0.52963433
C        9.52710639       2.57313061       3.83880627      -4.02158360       3.61069175      -1.55043704
C        3.28923794       1.99526523       0.09178056      -7.11859389       2.31030717       7.15329027
C        4.15492874       2.93528872       3.00393936      -1.83251111      -0.36741786      -0.94781022
C        0.15321014       8.84909493       0.81530828      -2.69655244       1.41979718      -0.23324280
C        4.50494993       9.14552072       3.31474096       0.22999333       1.72009711      -4.35863448
C        7.31402640       7.35268961       1.01391890      -0.28094172      -2.12748190       4.18924491
C        9.66860931       2.34507378       6.60274463      -0.29973483       0.42924637      -5.20642619
C        3.91335038       9.92258324       9.71859292      -0.07862528      -7.26533267      -6.41089928
C        9.42522632       4.46960581       0.96722743       0.87536470      -3.64871535       0.97036084
C        3.00039252       0.28305798       4.66187444      -1.17199743      -5.05071052       3.53314494
C        0.72309664       6.41279315       1.63452760       5.49454773      -4.56112860       1.95201760
C        0.91167570       5.49829805       7.41536781       2.88326153      -2.03796393       3.14562323
C        0.19895720       9.82209382       5.47438157       1.42428281       0.47754095      -0.63313528
C        9.23430596       7.04081971       9.40639993      -0.54175960      -1.46553477      -0.24752429
C        1.60106897       5.49267003       3.70953022       3.24178951       2.27181120       0.19722526
C        5.47255895       7.93796771       9.71024908       0.50720823       3.34562563       2.57603516
C        9.73781659       2.64546099       8.21002890      -2.08983204       2.94375282      -0.37975926
C        6.44121124       8.75507057       5.73611437      -1.54797551       0.84745286       1.28170617
C        7.76239155       8.06863716       2.22255376       0.40180694       0.99858901      -0.56358959
C        2.00535941       3.12198519       1.70723894      -1.12058202       0.06569247       2.14289112
C        2.96601507       9.39394636       8.73868403      -0.91137454      -4.04491540      -2.98478645
C        9.23883572       9.40671954       6.93352430      -2.15690636      -0.31395378       0.56978776
C        6.16830275       5.38849285       3.06560285      -2.76870828       0.59825719       5.11601662
C        2.22014164       3.46523907       9.24844428       0.89443129      -0.99701115       0.19716245
C        9.52363542       1.62073018       9.35129397       7.63213108      -6.51800747       3.93366359
C        1.12679185       1.62558764       5.75512140       1.06175731      -1.93121034       0.81417521
C        1.23685648       1.38558450       3.51072850       4.70147661       1.24292254       0.90358481
C        0.92994933       6.32728062       8.65286876       6.05667990       2.52383260      -3.27563873
C        4.69198776       7.71875668       0.78086571      -1.80089870      -5.67141488       0.00743511
C        9.27791973       6.99366944       4.95318049      -0.37352139      -2.42269972      -4.03711512
C        7.57657369       3.72528753       0.15485376      -4.85513269       1.59951513       0.65008761
C        8.79303176       1.60412454       1.19520216      -6.57956227      -2.97915229       3.73778890
C        7.40641614       1.31496162       6.25393781      -0.56401497       1.70112243       0.92020639
C        7.50712786       1.58675811       2.03661743       0.12100106      -0.02610688      -0.63105385
C        8.50557413       4.74897067       9.06035456      -0.09004818       3.77305271      -2.01687990
C        5.89756844       1.27887311       8.18037494      -4.43616022       1.85645132      -0.03144801
C        7.17426043       2.85561248       4.21342320       0.78332040      -3.49316359       4.33088998
C        1.41443192       5.49060086       5.14965230      -4.48242122       3.68753085       0.41995098
C        5.80443268       8.92171085       2.89566432       4.25648655      -4.76127866       0.55999141
C        6.64001752       2.44409865       5.48910044       2.89631142       0.12692814      -3.36861028
C        4.40359531       3.84409062       5.38183639      -1.82230487      -2.32767375       3.97905538
C        6.30040033       5.04394661       1.63097663       2.91157141      -1.10826487       4.34737039
C        4.80672385       1.56428490       7.21573171       0.96082209       0.68593369      -1.24478469
C        2.24002005       2.77586245       0.14476969       3.62784641      -1.08499660       4.54659781
C        7.96696566       4.09143863       4.24998191       1.69973823      -2.32130127      -2.23288598
C        7.36894027       1.55478449       3.52107178       1.13399044       2.89314230      -0.24866312
C        7.58668784       5.51904388       3.71266469      -0.36599094       0.45951138      -2.80988817
C        3.24054601       9.27122942       7.36913239       3.38735949      -2.78519700       0.98184820
C        7.96819517       6.37384095       7.42991003      -4.88668549       0.38448873       0.12619172
C        6.25042569       9.45582032       1.56366043      -0.82425694      -6.12079048       2.13781348
C        7.53975756       5.91598196       1.28723688      -0.21528059       1.37449417       0.88606745
C        5.36850484       1.67409815       4.87870336       1.08154368      -0.18818753       0.34858440
C        4.18729965       1.87218907       9.51775135       3.70309817       1.39594651      -3.74412757
C        8.41925969       0.43772630       9.53911423      -3.70141430      -3.15677119      -4.28279660
C        8.78361079       1.27349443       4.16075321      -2.73206086       8.72743329       0.01311100
C        9.48830309       0.15197647       3.31461342      -4.19357897       1.54395554      -0.96940988
C        4.91709244       2.65578964       1.86125337      -4.08761554      -4.05068583       3.17130089
C        6.73683582       8.56575355       7.32741871       0.05966002       2.04633534       1.51636209
C        4.54291876       6.14129470       6.33303022       0.77282950       0.81243045      -2.06248262
C        0.81601692       7.41556771       0.59975196      10.03857069      -3.93977783       7.26907246
C        9.56460455       4.75874099       2.43525639      -5.27593283      -3.11048557      -0.27163031
C        0.89451709       3.98066004       1.55177910       5.07841656       4.64351090      -2.53684733
C        8.47133239       5.88347366       2.56572341      -2.57031712       0.20716830       1.46998021
C        3.10858379       1.11306384       1.35074067       0.25909745       3.18924649       3.74461354
C        0.78890932       1.00446224       6.98658628       1.75908603       3.85299258      -8.45126474
C        4.56069182       9.10344774       7.07166912      -3.75610218       2.51525870       0.56399881
C        5.09779797       0.78407468       6.02713629       1.84079848       7.28537634       2.58509543
C        7.02623310       4.78860351       9.31033051      -0.45057020      -4.01488979       1.47076043
C        4.96856568       5.17214486       0.76872063       1.14537852       7.09658690      -1.23202156
C        2.06580052       5.47164241       6.44188164      -1.98592064      -1.02128043       0.46824851
C        3.41090639       5.22209321       7.00393259      -1.15753919      -1.78093150       0.57784791
C        6.74832968       7.05624005       7.80944210       2.25254676      -4.35109822      -1.31186515
C        2.98168567       3.69784909       2.64969588       0.67891927       2.27976806       1.78087121
C        5.18747690       5.57014451       3.95024620       0.59809681      -2.68445398      -3.55600109
C        9.31738053       9.18455636       4.11749535      -3.41459156      -4.23811695      -1.84734642
C        3.75585019       5.24071576       8.47561911       4.91591203       0.33725489       1.85140449
C        2.23611305       7.68464739       0.31176851      -2.04569355      -2.87465227      -0.00785723
C        0.33615762       0.91048581       0.06098636     -74.99731316     -27.22023355      78.71679604
C        4.11469842       9.62247838       4.69242459      -3.18781529       0.53331664       0.31948984
C        0.73613002       3.44843611       9.09361663      -3.63753990       3.89141348       0.47822566
C        7.75871269       6.56908590       4.91638104       0.30020838       0.99846597       0.32446414
C        6.82626336       8.17254894       3.39098207      -2.73322132       3.51541985       1.46966064
C        9.59749004       9.25034761       9.65679856      -1.13592490       0.38134930       2.39539672
C        8.24573988       5.07948551       0.22480933       0.14790308      -2.09696736       0.45203094
C        9.05458357       6.03655417       8.40799269      -4.09045677       4.09158178       3.08133986
C        0.99915899       6.51827398       2.96403604       2.86693041       1.45487900       0.25923879
C        1.84991809       8.64507695       9.09112471       3.87282867      -2.41396285      -3.42589305
C        6.39333663       2.39620182       1.49061376       0.99768699       3.53915285      -2.52902241
C        9.82649349       7.69217157       0.27778674      -4.58440243      -1.74384070      -6.49356178
C        3.36106478       8.65425986       2.65744061       4.47969047      -1.87539245      -2.77034294
C        8.82888011       1.19325485       5.76790380      -5.71669015       0.62231345      -3.19112895
C        3.76411158       3.75500757       6.56843235       5.33189557      -2.31457749      -3.84886171
C        0.49038306       4.13467619       7.80693196       2.01384417       3.47106880       0.60701676
C        6.91466129       3.75506595       1.39949525      -2.79597139       0.98698787      -2.32122998
C        6.87150764       3.66108362       6.48142773       2.87445882       1.34590840      -0.81746301
C        2.19189028       5.18494770       0.26854916      -3.26924732       0.02102582       7.62257445
C        5.96922928       2.26972414       0.14451722      -0.29293317      -2.52042303       0.46501255
C        7.33545729       3.15642687       7.86063285       0.48240892      -2.17920135      -1.48669679
C        1.85888697       6.04919885       9.63569410      -0.40596389       7.89118844      -5.64322338
C        0.05983020       5.83836990       5.38319411       3.22270578       2.74129022      -3.02785183
C        3.78080037       5.80978554       3.77001739      -0.39636895       0.47950282       1.76888555
C        4.52227934       2.79858223       4.39899402       2.04576399       1.88913641       1.75605857
C        6.10017370       8.20044320       0.76485126      -1.71548300      -1.01707369       3.72998121
C        9.32000333       7.87742744       3.87182512      -2.99608065      -4.88909820       0.89633042
C        7.02907995       7.83234693       4.73748947      -0.10603732       0.50647897      -4.99707683
C        4.87813541       8.73241116       5.71465253      -2.02971710      -3.83258737       4.09915288
C        0.76791118       1.10547230       9.61025888      68.17556285      34.01695645     -77.37576193
C        3.50941385       7.03824701       4.44752538       2.62212560      -0.76819218       0.90779395
C        3.44317672       8.23101802       1.34078505       3.57505971       1.93680979       4.86038323
C        5.63351329       6.07151785       7.44779862      -1.05741042      -1.19389621       2.34744176
C        4.54994410       2.80291856       0.45037608       0.95542773       1.10671919       1.52418034
C        1.19947831       7.76946081       3.56032060       2.49780539      -0.44827386      -2.99345044
C        3.30406045       2.55492937       8.66022710       3.96835569       0.39227706      -6.66399556
C        6.24862099       5.06016483       6.35415234       2.19944210       0.52990537      -1.22800963
C        9.05377368       3.73456612       3.38734720       0.04797795      -3.90323452       4.92501433
C        2.79597676       4.80302842       9.42175639       5.58954805      -6.55081420     -10.00644382
C        5.27830417       9.29015956       9.39345883      -2.92983777       0.45383649      -4.62540923
C        0.48541507       0.94022215       1.47311650       2.46561563      -3.10686328      -1.37413265
C        1.77454166       1.66340580       2.09482944      -1.07511773       1.24432188      -0.50854676