159
Time=1.00000000 pbc="T T T" Lattice="10.00000000 0.00000000 0.00000000 0.00000000 10.00000000 0.00000000 0.00000000 0.00000000 10.00000000" energy=-147.10448647 virial="413.00075450 -1.60474243 -13.00259948 -1.60474243 373.29316126 -26.74632651 -13.00259948 -26.74632651 311.09727257" stress="0.43745847 -0.00160474 -0.01300260 -0.00160474 0.39538940 -0.02674633 -0.01300260 -0.02674633 0.33495568" Properties=species:S:1:pos:R:3:vel:R:3:forces:R:3
C 0.16985908 9.88544961 4.16065936 0.03167384 0.00360836 0.02259285 41.02976892 12.27114365 19.70226346
C 9.50450245 2.56669915 3.84766069 0.00077809 -0.00051306 0.00511952 6.73624832 -3.49108122 2.78555647
C 3.35210991 1.97226808 0.05115598 -0.04034619 -0.00283285 0.02044233 -43.38588482 3.30898768 31.90396867
C 4.15184974 2.93203312 2.99965493 -0.00379445 -0.00346032 0.00349585 -1.28017174 0.41469966 2.01893799
C 0.16086202 8.84370726 0.79204140 0.00753538 -0.00583145 0.00027840 1.12376656 0.92438726 5.03417407
C 4.49636939 9.14354060 3.30943606 0.00143177 0.00894518 0.00131972 -1.91114691 3.34761323 0.10869611
C 7.32413554 7.35714214 1.02415668 -0.00396049 0.00518067 -0.00628001 -1.55862178 -1.34810233 -0.24071934
C 9.68089084 2.36172106 6.59120542 -0.01121323 -0.00181090 0.00908751 -7.08089559 -3.09213330 4.71074102
C 3.92695241 9.93849873 9.72597609 0.00333411 0.00405493 -0.00707054 0.85073848 -4.51581819 -0.93769471
C 9.43609503 4.45766502 0.98172928 -0.00140348 0.00301078 0.00504156 -0.39465539 -0.50848473 -0.60182157
C 3.00860758 0.24865171 4.67193828 -0.00391208 0.02336666 0.00212799 -6.07403014 22.09852643 -4.78094601
C 0.72550223 6.41272074 1.63550068 -0.00436609 0.00851745 -0.00110492 0.00917649 1.16196262 -0.38740578
C 0.91730943 5.48624214 7.42187646 0.00846132 -0.00141438 0.00079204 1.80972643 -2.03289545 1.40813278
C 0.13630440 9.83600242 5.46439684 0.05010716 -0.00186812 0.00753877 43.58672021 -7.04720030 4.41157827
C 9.24535735 7.03646799 9.42627228 -0.00221473 0.00015701 0.00294316 -5.30824064 -4.21006452 -6.44615798
C 1.61351448 5.48034196 3.70026121 0.00656084 -0.00263479 0.00625383 -1.07961863 0.33174686 1.59993635
C 5.49777261 7.92366454 9.73482262 -0.00531636 0.00513371 -0.01226808 -7.98941194 2.88597445 -18.50025606
C 9.75849039 2.66795317 8.19829267 0.00325856 0.00110375 -0.00292645 -1.52329100 -5.55060072 1.49601576
C 6.43090140 8.76232763 5.74281546 0.00149263 -0.00150416 -0.00579836 -0.37038268 -1.74725362 0.91168268
C 7.77701801 8.07469124 2.24318592 0.00825928 0.00717861 0.00373717 3.81239983 1.06403148 -1.61520340
C 2.01661479 3.10768739 1.69804881 0.00275100 -0.00276807 -0.00030115 -0.78123753 -1.30824123 -0.82149718
C 2.95749907 9.40361668 8.73724695 0.00108302 0.00372327 -0.00048335 -0.41339783 0.98739633 0.39762533
C 9.23532037 9.40457794 6.92414481 -0.00416452 -0.00075264 -0.00870063 1.90489606 -3.26294907 0.16073172
C 6.16378996 5.38847002 3.08402402 0.00509116 0.00028473 0.00512226 1.89518087 -0.16256390 0.54334050
C 2.22401476 3.39779529 9.30268587 -0.00003246 0.02825787 -0.04960749 0.35547440 31.45140163 -46.21733252
C 9.52824528 1.61379382 9.35566028 -0.00733043 -0.00039533 -0.00101735 -9.50000301 7.67039830 -7.46321417
C 1.11381977 1.63161197 5.74923058 0.00329229 0.00333617 -0.00162818 5.83218803 1.23039437 -0.02179711
C 1.23725037 1.38251579 3.49429596 -0.00205576 0.00112898 -0.00395586 4.06786906 3.29436574 1.06603934
C 0.91659370 6.32491846 8.67079516 -0.00006043 -0.00665794 -0.00130525 1.81219561 0.97995639 -4.60697365
C 4.68301420 7.73481200 0.77009959 -0.00053508 0.00073490 0.00376556 -2.63730461 -5.22115621 4.27973632
C 9.26353283 6.99822501 4.95174202 -0.00131690 -0.00450108 0.00904726 -0.69643588 -5.56721877 1.97992343
C 7.56120350 3.72566077 0.13702271 -0.00912898 -0.01048225 0.00565044 -3.09341143 -3.89147250 4.81939525
C 8.79749732 1.58994905 1.17737392 0.00202137 -0.00452865 -0.00011311 0.03498853 0.08041464 5.85820768
C 7.39774692 1.32348487 6.26807440 0.00121686 0.00699118 0.00241514 -1.61844246 -0.43242605 -1.41729169
C 7.49131921 1.57043505 2.05417471 0.00028408 0.00049669 0.00449152 0.48517688 2.17010923 -0.97893880
C 8.49331814 4.74969468 9.09669831 0.01295737 0.00993469 -0.01380064 6.96927785 2.61421507 -23.77407013
C 5.90001946 1.28580138 8.17356208 0.00380183 -0.00292498 -0.00049140 -0.96506398 -1.26067431 -2.17469254
C 7.17808329 2.85808454 4.22873644 -0.00524891 -0.00033024 0.00669658 -1.20054523 -0.23596788 -0.34821071
C 1.42599200 5.50336254 5.15474181 -0.00145842 0.00706145 0.00684205 -1.27079042 0.86867651 0.44874600
C 5.79776695 8.93328830 2.88661615 -0.00222173 -0.00143155 0.00313578 3.38929525 -1.14487367 -0.27477401
C 6.65824495 2.46359232 5.48427651 0.00395059 0.00658909 -0.00362707 -0.88225090 -0.48107089 1.11145132
C 4.40056644 3.83686122 5.36617919 0.00376007 0.00747207 -0.00394861 -0.96194376 -0.54561527 -0.56715486
C 6.29368139 5.04925818 1.61649000 -0.00190070 0.00081279 0.00477601 -0.92640687 -0.21260432 5.74129026
C 4.81393142 1.56715135 7.22525883 0.00199560 -0.00463404 -0.00163493 -0.18878082 -0.23750287 -1.12971107
C 2.23113525 2.83591995 0.08882504 0.00087004 -0.03292480 0.05922629 2.97467603 -32.50248437 51.35230657
C 7.95492254 4.10412691 4.24371758 -0.00416383 0.00314905 0.00656056 0.40738906 1.27506949 1.35187128
C 7.37422921 1.54606216 3.53108784 -0.00617123 -0.00220346 -0.00599648 -0.37453674 -0.36254476 -0.75767006
C 7.57696485 5.53570351 3.71418786 0.00100109 0.00158619 0.00199488 -2.05091863 -0.19250297 -0.13190544
C 3.25457293 9.27416374 7.36043127 0.00011254 -0.00710895 -0.00040365 -1.71886593 -0.50465146 0.11222745
C 7.96034336 6.36619051 7.40643542 0.00245752 -0.00370470 -0.00839551 1.80295596 -0.11256094 0.27155032
C 6.24617436 9.44298613 1.58412770 -0.00437189 -0.00981567 0.00429171 -2.77914911 -2.41949353 -1.63321383
C 7.55024575 5.91895353 1.30441326 0.00356593 0.00501920 0.00650476 1.76814089 0.73613430 1.17390011
C 5.38718765 1.67840887 4.87784173 0.00887269 -0.00448173 -0.00050486 1.80514018 0.74542924 0.97948031
C 4.12415116 1.88702967 9.54942838 0.03967631 -0.00271106 -0.02523042 40.84401399 -7.07258475 -28.52907488
C 8.44825659 0.43887000 9.52197423 0.00382471 -0.00081140 -0.00532276 -4.51104684 4.78171478 -2.33284116
C 8.80300122 1.25334771 4.18377669 0.00402717 0.00242257 0.00256656 -3.09731531 5.31517842 -3.85938048
C 9.50766544 0.13648307 3.33649426 -0.01741671 0.02064856 -0.03060311 -22.68657631 20.35208773 -24.09380082
C 4.93462098 2.66846089 1.85564277 0.00935389 -0.00773666 0.00429287 2.04882463 -2.01055520 -1.89192900
C 6.73617963 8.58487991 7.34406755 0.00200658 0.00116186 0.00564561 0.09198310 -3.70479844 -0.27868611
C 4.54164467 6.12494183 6.31605733 -0.00487661 -0.00277728 -0.00559744 0.19600372 0.50013886 0.95910307
C 0.73600579 7.43587656 0.55930715 0.05146926 -0.01199524 0.01602939 59.11676484 -15.06720418 25.34828820
C 9.56593768 4.75352526 2.45358795 -0.00955369 -0.00715187 0.00699271 -4.85834935 -3.57802816 0.23591647
C 0.88641376 3.96773103 1.55126039 -0.00787238 -0.00620864 -0.00616679 -0.70244454 -0.74610126 1.30166469
C 8.45301957 5.88296774 2.56029601 0.00090097 0.00319940 0.00532549 1.42263861 0.77592869 -0.84781803
C 3.09534319 1.11118712 1.35802570 -0.00652481 0.00165462 -0.00686546 -0.91622759 -0.40458392 1.76479605
C 0.77879297 0.99750605 6.97107186 -0.00060532 -0.00190394 -0.00054834 1.03249336 -2.59176735 1.44354081
C 4.54893631 9.08914437 7.06244760 -0.00503760 -0.00338050 0.00528953 -1.75254440 0.31152055 -0.16949651
C 5.08916644 0.76241057 6.00177842 0.00306519 -0.00144348 -0.00606124 2.11312880 3.95852561 2.34116994
C 7.02846283 4.78971352 9.32935403 -0.00604555 0.00956003 0.00013729 -5.64759642 4.39809084 -4.05010005
C 4.94948672 5.16694260 0.77314364 0.00181427 0.00836922 -0.00725591 4.64965530 0.51441906 1.41525731
C 2.06443614 5.47610155 6.44005148 -0.00110124 -0.00476988 0.00197999 -1.88563441 -0.25252867 0.59381913
C 3.42351100 5.21429829 7.01616736 0.00308848 -0.00271939 0.00500466 -0.28012923 -0.39258239 -0.65405441
C 6.75689404 7.06263508 7.81254475 0.00229101 -0.00138400 -0.00647649 -0.00754499 0.74918801 2.08824578
C 2.98124691 3.70996212 2.64802468 0.00495372 0.00584699 0.00235828 0.26591737 1.10760794 -0.11551270
C 5.19059010 5.56273198 3.95466957 0.00251317 0.00618126 -0.00416941 -0.98824174 -0.59932539 -0.27132901
C 9.35730127 9.20948289 4.12199283 -0.02173281 -0.02680563 0.01187799 -29.01524247 -23.84771337 6.58568253
C 3.75284057 5.24095262 8.45456470 -0.00494978 0.00154176 -0.00806497 0.29789809 -0.37557829 0.17510048
C 2.23105367 7.67828174 0.29234956 -0.00658208 -0.00170537 -0.00255747 0.06038475 5.26047850 3.31621770
C 0.31482082 0.92897035 0.05249406 0.00635956 -0.00045682 -0.00144398 13.27696198 -2.81878571 9.51782164
C 4.10368219 9.62731466 4.69263972 0.01592481 0.00207728 -0.00804799 11.08570550 -6.21775439 0.65302586
C 0.73174112 3.44649367 9.10271733 0.01148643 0.00194778 -0.01253124 4.61171044 2.84850488 -9.25813712
C 7.76585520 6.55882656 4.92516658 0.00196063 -0.00544638 0.00163454 0.46166581 -0.43055971 1.26466989
C 6.82025973 8.19359128 3.39748059 0.00097892 0.00478937 0.00736173 1.44202259 -0.67698690 1.82032361
C 9.59232130 9.24235095 9.65976982 0.00029996 0.00575062 -0.00099993 0.44481047 4.10719481 -4.55553478
C 8.24360181 5.08226627 0.19603167 -0.00267087 -0.00117867 0.01974018 1.43734716 2.87575701 21.89825772
C 9.05529265 6.01950480 8.41973450 -0.00160625 -0.00486403 0.00592733 -2.63635373 2.71670333 -0.49088066
C 0.98529033 6.52317698 2.94956006 0.00026839 -0.00466955 0.00040117 3.08987810 0.28251238 1.84513365
C 1.84066754 8.64134688 9.10040237 0.00010830 -0.00462433 0.00226701 2.44178770 -2.49272982 0.85804921
C 6.39544726 2.40756332 1.49618551 0.00214891 -0.00045823 -0.00583593 -1.11626699 1.21610727 -0.57621066
C 9.89096502 7.66829557 0.30774625 -0.04883989 0.00820324 -0.02096944 -54.46213372 11.49666194 -16.37153598
C 3.38086124 8.65802395 2.65763611 0.00182211 -0.00590768 0.00142176 -3.20956679 -2.41907827 -0.28468425
C 8.82946944 1.18704267 5.78161847 -0.01462207 0.01111513 0.00448594 -8.69284082 6.15570805 -1.45033301
C 3.75685522 3.76024142 6.57668294 0.00228514 -0.00286035 0.00174516 0.72181990 -0.40277517 -0.34302902
C 0.49838680 4.11935593 7.82426775 0.00276942 0.00997347 -0.00806537 2.64311200 5.07288188 -3.86682167
C 6.89805652 3.75539914 1.40868358 -0.00205139 -0.00748875 -0.00004410 1.44922842 -0.76655731 0.27964527
C 6.88027799 3.64908761 6.46843912 0.00646635 0.00238247 -0.00037029 -0.05386750 0.16148367 -0.39689274
C 2.20274546 5.19249159 0.23461980 -0.00428866 0.00245862 0.03656538 -10.04377706 -5.55944544 38.54957753
C 5.92447538 2.20718746 0.07679057 0.02571473 0.04788674 0.03282024 23.84976158 43.31910392 33.62890428
C 7.31547302 3.13615057 7.84889477 -0.00792223 -0.00682046 -0.00101518 -0.21222794 0.74435300 -0.42310982
C 1.88729722 6.02082094 9.67070373 -0.01779157 0.01965749 -0.01715219 -17.00167021 18.14136919 -25.73342082
C 0.06734826 5.82100619 5.36486876 -0.00017666 0.00249268 -0.00874423 -0.61003909 3.67602484 -0.85393645
C 3.76296077 5.80819195 3.77359801 -0.00393800 0.00112923 0.00628004 1.02383614 1.61155684 0.45320314
C 4.52577050 2.79955882 4.38228197 -0.00668958 -0.00629492 -0.00396218 0.49773652 0.36414808 1.18472615
C 6.09024775 8.19884575 0.72231543 0.01291936 0.00515909 0.00916164 10.88403224 4.06652196 20.35638218
C 9.32736298 7.89246620 3.87223166 0.00755051 0.00472287 -0.00386970 0.21793214 -2.37351737 2.95937296
C 7.02374899 7.82780322 4.75344743 -0.00085316 0.00581846 0.00287102 -0.62777651 1.55666853 -0.83757024
C 4.86654985 8.73869836 5.70575304 -0.00731191 -0.00113088 0.00334409 0.91682673 -3.38410197 0.87401840
C 0.76284976 1.13021593 9.61013345 0.00685855 0.00325985 -0.00535001 4.13240741 -4.94473969 1.01218718
C 3.51362506 7.05944997 4.45239130 0.00507611 0.00628672 -0.00750039 0.35117577 -1.42723049 0.09538187
C 3.44643384 8.22963859 1.32982799 -0.00525356 -0.00225540 0.00485421 -2.38363806 2.55444982 1.38482632
C 5.61421307 6.07265454 7.43526723 -0.00600429 0.00447172 -0.00597518 0.70369594 -0.08172031 -1.77368481
C 4.52989663 2.80621547 0.45593036 -0.00191551 0.00904538 0.00598464 3.08189836 3.06212403 3.04811493
C 1.19007776 7.77392986 3.56075286 -0.00211591 0.00652650 0.00531533 5.29394617 -1.80096933 1.37547312
C 3.30964121 2.56868639 8.68073007 -0.00211107 0.00460490 -0.00595490 1.11468961 1.26605095 -6.36113282
C 6.25992688 5.05920998 6.35366179 -0.00049747 0.00259037 -0.00260802 0.51200644 -0.39737772 1.17062792
C 9.06038319 3.73271881 3.39426716 0.00298613 -0.00431267 -0.00784564 0.95340985 1.76400692 -0.65429614
C 2.76962927 4.81388201 9.45926620 0.01664988 -0.02529605 -0.02369341 20.29263167 -22.77600436 -28.20740154
C 5.28333819 9.28800023 9.39166778 -0.00809385 0.00974638 -0.00388171 -2.09642159 3.00296466 -5.17732602
C 0.48063750 0.95384866 1.46868975 -0.00390000 0.00245954 -0.00449902 0.21036333 0.02458512 -5.44939148
C 1.77188703 1.67334615 2.11067647 -0.00555671 0.00477479 0.00257927 -3.76877082 -2.89146387 -1.16319412
C 6.47076412 0.02157641 6.45729539 -0.00691665 -0.00235404 -0.00644423 -1.34637326 5.78969437 -7.94121923
C 3.86557039 2.60853099 7.39845834 -0.00232442 -0.00334321 -0.00050725 -0.88335960 1.03520327 0.90726951
C 0.63795805 9.41170832 1.92358291 -0.00544159 0.00163686 -0.00534624 -0.32525114 6.14592561 -3.01043253
C 5.14860663 5.13220130 5.35436357 -0.00706863 0.00284713 -0.00720809 1.03258538 0.16389462 -0.37759721
C 7.27444249 1.73304100 7.66809255 -0.00178072 -0.00947307 0.00444519 -1.62631881 -3.99367899 0.25553936
C 7.73132684 0.53223993 8.31448040 0.00510644 0.00679918 0.00812038 0.47206692 3.57085274 1.94192428
C 8.73021844 3.67034742 8.05618225 0.00321741 -0.00630279 -0.00793433 -3.56285372 0.17374735 -0.09107551
C 2.24362090 8.94473789 6.36128688 -0.00118988 -0.00624446 0.00908686 -1.76963294 -1.67394042 4.33202527
C 0.33439345 2.81097175 5.55110087 -0.00282073 0.00036653 -0.00606812 3.86856488 2.40202735 -8.06413214
C 6.07306844 5.75823061 9.75677360 0.00058285 0.00296804 -0.00616772 -1.88119419 -1.20146179 -7.34791479
C 7.60417948 5.69660504 6.14654657 -0.00076231 0.00538604 -0.00029841 0.81714032 -0.52034793 -1.13277763
C 2.69602768 9.19491160 5.04622289 0.00041189 -0.01957787 0.00592387 -7.43373952 -17.42661934 2.74111448
C 2.82774761 4.94952340 3.25950924 -0.00184823 -0.00301145 -0.00859102 -0.08924253 -1.23203506 -1.27039245
C 0.52215322 8.91413085 3.22617261 0.01404518 -0.00493773 -0.00351391 10.92723579 -3.50693592 -7.28617548
C 9.06349662 7.33739985 2.59566404 0.00217843 0.00391230 0.00441655 -6.49362354 -2.48360109 -0.11824967
C 4.37873273 7.35448177 5.53013532 0.00165498 0.00130867 -0.00226522 -2.38453122 -1.47664981 -1.84372853
C 8.13178597 4.29798665 5.81130228 0.00282150 0.00077876 0.00066315 0.81047632 0.37872841 -0.07253516
C 9.31708355 3.86790829 6.60063610 0.00144114 -0.00641309 0.00415503 -1.84838850 0.81815891 0.52017677
C 9.98496022 3.37685107 0.13066490 -0.00032183 -0.00479447 0.00404959 -2.81849341 1.45513501 12.11912192
C 4.13903395 1.53840721 2.36057754 -0.00521061 0.00267457 0.00447573 -0.90764838 -2.29710390 -0.77630783
C 6.06371449 0.72296186 3.86849913 0.00369463 -0.00163448 0.00134728 -0.67187326 4.07729305 -1.29924306
C 7.77161191 9.45033525 1.60283771 -0.01113787 -0.04614227 0.02221203 -8.61383771 -40.20259564 17.58807373
C 1.00853277 8.31681574 6.88247711 -0.00622686 0.00120062 -0.00469454 0.39928101 1.35658978 0.79258393
C 7.92911419 9.21343063 7.84998907 -0.00267904 -0.00407249 0.00013178 3.02938449 -1.42690971 -1.56177031
C 5.61430831 9.38234189 7.88397421 0.00714007 -0.00407555 0.00083067 -0.07030786 0.00636384 2.40619837
C 6.53618249 3.56741366 9.02301766 0.00500868 0.00254070 -0.00585491 0.63783342 -5.80837402 0.49152342
C 1.13569222 7.75639466 8.20807819 -0.00288165 0.00289263 -0.00114948 0.66258424 1.81244374 -2.63329718
C 5.53011650 1.53320787 9.50739851 -0.02135075 -0.05051605 -0.04067104 -23.17234641 -39.74549500 -36.04982487
C 6.62112862 7.11234720 9.43866800 0.00093493 0.00320757 0.00137068 -1.17934902 -3.65897027 -3.52869542
C 8.23774428 9.03961108 9.29778790 0.00575911 -0.00982982 -0.00068763 2.02868168 -3.73681634 -1.50758767
C 9.10266637 9.94945084 5.44242850 -0.03800498 0.00179556 0.00904715 -40.03785021 -4.07137878 7.11719374
C 1.18295680 5.23834869 1.10074561 -0.00125170 -0.00988749 0.00449965 1.82123477 -3.40139940 -0.33850101
C 2.94510018 6.33027557 0.30606103 0.00172757 0.00291286 0.00333328 7.81119400 10.35043624 8.22163982
C 2.55808245 8.08311981 3.96532021 -0.00074698 -0.00264547 -0.00018124 0.02630561 -0.80986031 -1.52232033
C 4.29963877 6.37300635 0.61520361 -0.01006963 -0.00414711 0.00750216 -5.02521877 -1.15389709 3.15334793
C 5.05788390 5.56493470 8.66917219 0.00089256 -0.00550058 0.00205719 -0.89962500 0.43501125 -2.70131960
C 4.93889835 0.48197861 2.82491126 0.00711805 0.00035552 -0.00174350 3.06159165 2.47705014 1.00892788
C 2.03354631 1.30760571 4.75865599 -0.00157642 -0.00300298 -0.00217546 -0.33046178 0.79997892 -3.88756569
C 7.89938760 0.39306432 1.26293282 -0.00052333 0.04665618 -0.01307473 5.49994466 40.66153816 -11.62082895
159
Time=2.00000000 pbc="T T T" Lattice="10.00000000 0.00000000 0.00000000 0.00000000 10.00000000 0.00000000 0.00000000 0.00000000 10.00000000" energy=-197.17810535 virial="355.57080460 -1.92908288 -24.55511490 -1.92908288 327.83167898 -19.52317942 -24.55511490 -19.52317942 280.15166720" stress="0.41795391 -0.00192908 -0.02455511 -0.00192908 0.37542305 -0.01952318 -0.02455511 -0.01952318 0.33760035" Properties=species:S:1:pos:R:3:vel:R:3:forces:R:3
C 0.21801267 9.89398672 4.19116570 0.05864108 0.01198661 0.03272080 26.11076563 8.58823921 5.51336397
C 9.50798617 2.56478389 3.85389903 0.00614923 -0.00323049 0.00739419 6.63631613 -3.27452219 2.87770438
C 3.29433762 1.97076430 0.08441266 -0.06763903 -0.00325754 0.04261070 -24.56529665 -4.36633966 23.28878318
C 4.14754111 2.92873937 3.00396170 -0.00472367 -0.00316395 0.00501232 -1.03332216 0.32316838 1.75662150
C 0.16884876 8.83824710 0.79434179 0.00780544 -0.00432805 0.00384408 -0.45139365 2.81863042 3.84334527
C 4.49703355 9.15383036 3.31079943 -0.00013479 0.01149497 0.00134324 -1.98912753 3.00061967 -0.05012482
C 7.31954903 7.36178135 1.01777999 -0.00515472 0.00394584 -0.00632220 -1.41466433 -1.72626032 0.13566622
C 9.66683354 2.35866819 6.60218501 -0.01648578 -0.00424845 0.01239204 -6.04622228 -2.97664711 3.51658375
C 3.93062822 9.94073986 9.71852893 0.00389697 0.00014559 -0.00779774 0.55061168 -5.21728381 -0.87282391
C 9.43453303 4.46047156 0.98652911 -0.00201060 0.00258601 0.00450006 -1.11689113 -0.54907171 -0.74633542
C 3.00225585 0.28089432 4.67214598 -0.00815686 0.03788274 -0.00087439 -4.49424602 14.04226042 -2.69410177
C 0.72113983 6.42170489 1.63424015 -0.00393636 0.00863544 -0.00107017 1.06071648 -0.86819887 0.47392322
C 0.92649763 5.48401125 7.42323409 0.00987700 -0.00301102 0.00189512 1.71492172 -1.94229361 1.33819417
C 0.20391833 9.83130376 5.47370753 0.07605323 -0.00607823 0.01144767 21.01137468 -3.43475051 5.32043850
C 9.24101054 7.03493401 9.42662631 -0.00731484 -0.00369634 -0.00340232 -7.38953410 -5.38364536 -9.35222586
C 1.61964169 5.47784042 3.70715767 0.00558654 -0.00230916 0.00745484 -1.34610041 0.47897784 1.39021177
C 5.48924727 7.92995741 9.71512385 -0.01102810 0.00776452 -0.02525105 -6.23114190 3.66399435 -13.82355003
C 9.76113711 2.66682749 8.19596710 0.00195239 -0.00346294 -0.00163846 -1.72867466 -5.81911759 1.71070094
C 6.43224526 8.76012169 5.73738328 0.00106802 -0.00287584 -0.00492396 -0.68676173 -1.66783854 1.26531107
C 7.78680855 8.08229722 2.24627434 0.01118732 0.00759602 0.00261276 3.47756745 -0.02481059 -1.18424903
C 2.01905201 3.10439386 1.69741770 0.00192294 -0.00368555 -0.00068887 -1.28039619 -0.97600595 -0.14381665
C 2.95841605 9.40773655 8.73692331 0.00066560 0.00448347 -0.00013561 -0.62586691 0.90526370 0.46813708
C 9.23192095 9.40251472 6.91550874 -0.00284573 -0.00337050 -0.00839327 1.37850530 -3.25476577 0.60451474
C 6.16964232 5.38868945 3.08936451 0.00656906 0.00015738 0.00546709 1.78435272 -0.15448373 0.31519819
C 2.22412508 3.43868573 9.23451502 0.00079148 0.04569218 -0.07632272 1.69589020 11.95491948 -20.29576337
C 9.51709913 1.61647933 9.35164531 -0.01360335 0.00480061 -0.00589987 -6.11773116 5.26596868 -4.69284372
C 1.11945459 1.63544233 5.74759365 0.00767798 0.00434117 -0.00149181 5.08688481 1.27176703 0.36132007
C 1.23682849 1.38496797 3.49076828 0.00113633 0.00384287 -0.00317148 3.87948992 3.46241578 0.88682683
C 0.91726115 6.31865412 8.66763950 0.00115952 -0.00562138 -0.00522360 1.22510389 1.60077995 -5.14858137
C 4.68141984 7.73344981 0.77558413 -0.00241902 -0.00340393 0.00693640 -2.05314052 -5.08331580 3.61472877
C 9.26193620 6.99148784 4.96158452 -0.00183466 -0.00892430 0.01042859 -0.59264055 -5.44529206 1.45917475
C 7.55083203 3.71361549 0.14460888 -0.01143090 -0.01314440 0.00929979 -2.63768175 -2.73650230 4.26640273
C 8.79953275 1.58545269 1.17961379 0.00241710 -0.00413642 0.00458717 0.95025952 0.89613558 5.84409176
C 7.39831372 1.33030236 6.26992028 -0.00027566 0.00661838 0.00127855 -2.09750519 -0.49575042 -1.41246872
C 7.49179816 1.57180337 2.05827304 0.00057523 0.00252061 0.00382113 0.23969002 2.86887432 -0.69012221
C 8.50907474 4.76067937 9.07334873 0.01791967 0.01242918 -0.03090119 5.38540158 3.59635180 -18.80129094
C 5.90343367 1.28237004 8.17219721 0.00316413 -0.00394360 -0.00317755 -0.62262640 -1.27540653 -4.51303191
C 7.17235218 2.85765952 4.23529316 -0.00606809 -0.00042995 0.00619370 -0.83897961 -0.01229012 -0.90380830
C 1.42402317 5.51077290 5.16176411 -0.00240283 0.00769694 0.00711436 -1.08051601 0.71351065 0.22922374
C 5.79690654 8.93139691 2.88964156 0.00039582 -0.00240178 0.00300810 3.12763722 -1.27071887 -0.04312566
C 6.66184119 2.46998819 5.48109587 0.00313430 0.00611951 -0.00257453 -1.15009266 -0.68806311 1.50904528
C 4.40394014 3.84411415 5.36200278 0.00289558 0.00685503 -0.00435518 -1.19039076 -0.99064231 -0.44508684
C 6.29140859 5.04998558 1.62357202 -0.00260332 0.00063180 0.00929195 -0.82290126 -0.23799662 5.50209265
C 4.81585119 1.56242192 7.22317014 0.00186700 -0.00486960 -0.00279047 -0.13137723 -0.34897896 -1.74725413
C 2.23320007 2.78994041 0.16867718 0.00255265 -0.05085074 0.08994561 1.21452864 -12.12786423 25.12980595
C 7.95092234 4.10778810 4.25082112 -0.00369771 0.00403264 0.00750478 0.75310217 0.92481267 0.99895828
C 7.36790754 1.54371308 3.52478704 -0.00639301 -0.00237376 -0.00634408 -0.17764360 -0.06146962 -0.10774606
C 7.57714218 5.53721238 3.71612977 -0.00062300 0.00143397 0.00194523 -1.99258690 -0.18648455 0.00828197
C 3.25399509 9.26685209 7.36007270 -0.00132583 -0.00747571 -0.00016961 -1.86225720 -0.40845819 0.47045189
C 7.96352505 6.36244061 7.39814899 0.00385675 -0.00368533 -0.00808308 1.68071491 0.16076753 0.50629788
C 6.24068622 9.43219866 1.58776342 -0.00618735 -0.01164635 0.00309019 -1.74081176 -2.13835085 -1.35823445
C 7.55452187 5.92426841 1.31138952 0.00487414 0.00548438 0.00737953 1.48891332 0.42201344 1.00402009
C 5.39678538 1.67422654 4.87773028 0.01019204 -0.00378118 0.00025189 1.47966559 0.99872958 0.90460792
C 4.18023263 1.88147788 9.51273915 0.06435672 -0.00644375 -0.04366405 20.60296005 -2.22071332 -17.36526080
C 8.45026942 0.43997919 9.51571447 0.00027787 0.00291509 -0.00701445 -4.31955439 4.49615755 -1.87895246
C 8.80578435 1.25790515 4.18479311 0.00148032 0.00669897 -0.00039897 -3.24359004 5.33179151 -3.52390889
C 9.48113658 0.16530612 3.29621379 -0.03176761 0.03330774 -0.04374117 -13.04295827 11.16555332 -8.61613651
C 4.94479779 2.65991668 1.85917575 0.01072406 -0.00928522 0.00289107 1.36248443 -1.84490396 -1.59814552
C 6.73822316 8.58455372 7.34960123 0.00201817 -0.00184032 0.00533128 -0.06313652 -3.76976392 -0.50390753
C 4.53684678 6.12236543 6.31084512 -0.00470252 -0.00233536 -0.00478910 0.23742430 0.60012944 1.05343201
C 0.81121952 7.41782952 0.58551778 0.08802077 -0.02150842 0.03292949 31.88579733 -8.61783831 16.72801697
C 9.55443261 4.74493626 2.46067542 -0.01337138 -0.00987303 0.00706861 -4.64656370 -3.19687778 -0.04693618
C 0.87825924 3.96122271 1.54561642 -0.00850631 -0.00689955 -0.00497191 -0.87584875 -0.97405679 1.67323459
C 8.45449195 5.88647880 2.56528097 0.00197672 0.00378809 0.00468729 1.25566248 0.68975219 -0.74109979
C 3.08845037 1.11267923 1.35186908 -0.00725380 0.00096343 -0.00474638 -0.89872785 -1.31626879 3.51109211
C 0.77860235 0.99456112 6.97110333 0.00019175 -0.00393353 0.00041270 0.95199698 -2.46130529 0.94916362
C 4.54319479 9.08588899 7.06766905 -0.00619803 -0.00317174 0.00512347 -1.13658561 0.20823682 -0.24393434
C 5.09308037 0.76255705 5.99665752 0.00473469 0.00170039 -0.00417723 2.04345511 3.86876653 2.34946747
C 7.02014891 4.80104006 9.32786458 -0.00995570 0.01265445 -0.00307328 -4.08754728 3.30609269 -3.94328821
C 4.95316854 5.17551845 0.76645617 0.00563414 0.00876666 -0.00605840 4.86070857 0.47508301 1.56620396
C 2.06257753 5.47123024 6.44226997 -0.00253802 -0.00492836 0.00246922 -1.69152931 -0.14204686 0.62421656
C 3.42648696 5.21142123 7.02090932 0.00282279 -0.00301295 0.00419230 -0.38135387 -0.33830663 -1.36847751
C 6.75918201 7.06155199 7.80690701 0.00229194 -0.00078371 -0.00481895 0.00988012 0.74535645 2.03856125
C 2.98630743 3.71625398 2.65033657 0.00516565 0.00659630 0.00219218 0.26173690 0.75794502 -0.29803446
C 5.19270633 5.56867252 3.95039118 0.00163037 0.00569968 -0.00430068 -1.20964971 -0.59967687 -0.05549062
C 9.32391438 9.17309874 4.13651598 -0.04201382 -0.04091697 0.01544473 -21.47854104 -11.28538718 2.29444190
C 3.74801044 5.24234353 8.44657006 -0.00464843 0.00147942 -0.00775492 0.45238879 0.22037039 0.59682542
C 2.22449585 7.67868926 0.29112405 -0.00601452 0.00244791 -0.00005719 1.35265970 5.07997189 2.90874416
C 0.32651312 0.92738135 0.05487295 0.01547071 -0.00221832 0.00574861 9.40714439 -1.56683826 8.38961135
C 4.12405961 9.62689456 4.68485403 0.02338034 -0.00232756 -0.00731471 7.47639620 -4.74900578 1.17260964
C 0.74507986 3.44958557 9.08646752 0.01413806 0.00439076 -0.01966252 1.99006337 3.23379729 -8.49666909
C 7.76800127 6.55320724 4.92730908 0.00227293 -0.00564778 0.00260319 0.31587079 -0.07087279 1.14698014
C 6.82181785 8.19810874 3.40557346 0.00206705 0.00412950 0.00882820 1.26707801 -0.96590566 1.83076069
C 9.59279992 9.24975124 9.65694014 0.00098523 0.00888419 -0.00443342 1.26130607 3.69446642 -3.99284142
C 8.24150825 5.08224266 0.22456737 -0.00127564 0.00034869 0.03540486 2.03638943 0.92692361 17.10218361
C 9.05262749 6.01573195 8.42546467 -0.00371171 -0.00269660 0.00543580 -2.60562419 2.67955231 -0.73289446
C 0.98679978 6.51862090 2.95070234 0.00275542 -0.00440833 0.00213624 3.10208680 0.36783930 2.47468878
C 1.84175659 8.63572133 9.10301401 0.00203497 -0.00651076 0.00280758 2.35505635 -2.20392891 0.48783516
C 6.39714782 2.40759354 1.49011814 0.00139319 0.00060327 -0.00541117 -0.76526566 1.42670302 1.63372433
C 9.82025021 7.68111649 0.28020112 -0.08071803 0.01512017 -0.03007921 -24.90507765 5.72446239 -6.30912934
C 3.38139421 8.65114463 2.65894353 -0.00071071 -0.00775875 0.00123770 -3.09640997 -2.18953629 -0.17358902
C 8.81135586 1.20063026 5.78552188 -0.02131306 0.01590750 0.00329554 -7.96575992 5.77588332 -1.51342915
C 3.75943028 3.75721929 6.57829032 0.00289956 -0.00314658 0.00138022 0.80790230 -0.30985101 -0.56556328
C 0.50221784 4.13136695 7.81464925 0.00464919 0.01406490 -0.01124831 2.03696962 5.11357883 -4.05774720
C 6.89658722 3.74760250 1.40875180 -0.00100345 -0.00793872 0.00026458 1.15982935 -0.35374919 0.48888433
C 6.88672270 3.65153495 6.46790942 0.00633425 0.00251254 -0.00067253 -0.27501133 0.16234318 -0.35560750
C 2.19442267 5.19271724 0.28666877 -0.00898159 -0.00125681 0.06257370 -1.64024477 -3.69087988 26.20352065
C 5.95976946 2.27247348 0.12311798 0.03893521 0.07200973 0.04949827 9.06536140 16.74007724 7.89450984
C 7.30746555 3.12962908 7.84770965 -0.00788778 -0.00622289 -0.00139782 0.29799577 0.74341158 -0.52956232
C 1.86267686 6.04776498 9.64321561 -0.02955367 0.03187945 -0.03638623 -12.28250861 12.28774169 -22.15369924
C 0.06692657 5.82497536 5.35578154 -0.00070449 0.00544896 -0.00939084 -0.70408406 3.68424007 -0.75593556
C 3.75943400 5.80996847 3.78006008 -0.00308381 0.00237650 0.00651698 1.10283898 1.49377078 0.13671231
C 4.51928083 2.79341016 4.37879565 -0.00619658 -0.00591868 -0.00286190 0.72968502 0.57257520 1.55464919
C 6.10753873 8.20563817 0.73965329 0.02020481 0.00775418 0.02379938 7.25460156 2.39449971 16.08728739
C 9.33500103 7.89623573 3.86955060 0.00789471 0.00174155 -0.00157105 0.63900706 -5.04910110 2.76359828
C 7.02264369 7.83424692 4.75598204 -0.00127213 0.00691402 0.00218414 -0.41535587 1.17094134 -0.87256025
C 4.85960618 8.73620825 5.70944818 -0.00647256 -0.00384598 0.00400130 1.17289689 -3.37572240 0.76224766
C 0.77136811 1.13148971 9.60518999 0.01020255 -0.00034534 -0.00529941 4.19315695 -4.03112588 -0.88620733
C 3.51884222 7.06516343 4.44492921 0.00533774 0.00502598 -0.00739446 0.30020167 -1.71164599 0.16835390
C 3.44022289 8.22840919 1.33523843 -0.00704159 -0.00021828 0.00595296 -2.06803736 2.51738172 1.35073954
C 5.60849143 6.07709343 7.42857964 -0.00539103 0.00435564 -0.00729218 0.82314498 -0.20726298 -1.50527152
C 4.52921898 2.81649076 0.46313929 0.00059561 0.01215278 0.00851956 3.17005755 4.67438521 3.26307245
C 1.19008818 7.77973300 3.56662065 0.00216151 0.00481069 0.00635037 5.35558598 -2.47088255 1.20148010
C 3.30797785 2.57379981 8.67222020 -0.00111929 0.00586423 -0.01245958 1.35456864 1.86930892 -9.83361610
C 6.25963506 5.06164075 6.35152395 -0.00011768 0.00228506 -0.00169979 0.43356056 -0.36277182 1.09061575
C 9.06375226 3.72911465 3.38615872 0.00352433 -0.00295647 -0.00813602 0.38656108 1.61254924 -0.06866032
C 2.79442976 4.77943790 9.42424318 0.02928768 -0.04056368 -0.04210135 11.17178358 -15.23592670 -17.62297142
C 5.27440231 9.29895275 9.38570658 -0.00966548 0.01200619 -0.00811395 -1.81648597 2.62331822 -5.35971356
C 0.47682199 0.95631807 1.46200197 -0.00374178 0.00243885 -0.00868491 0.18355761 -0.07608683 -4.97225323
C 1.76481657 1.67695957 2.11278853 -0.00847920 0.00236739 0.00167434 -3.50735373 -3.10223476 -1.08980871