159
Lattice="10.0 0.0 0.0 0.0 10.0 0.0 0.0 0.0 10.0" Properties=species:S:1:pos:R:3:forces:R:3 Time=1.0 energy=76.51577751541201 pbc="T T T"
C        0.16985908       9.88544961       4.16065936      16.71725869       5.20939239       7.09569299
C        9.50450245       2.56669915       3.84766069      -3.46947306       3.70412804      -1.50261065
C        3.35210991       1.97226808       0.05115598     -28.19308748       5.46371502      20.44617640
C        4.15184974       2.93203312       2.99965493      -1.35035526      -0.56008335      -0.56674730
C        0.16086202       8.84370726       0.79204140      -2.50842609       2.66026817       0.36208775
C        4.49636939       9.14354060       3.30943606      -0.40553741       1.58654786      -4.84985170
C        7.32413554       7.35714214       1.02415668       0.42676122      -2.13823143       4.48330951
C        9.68089084       2.36172106       6.59120542      -0.68381262       0.57734130      -5.29760103
C        3.92695241       9.93849873       9.72597609      -0.02008221      -7.98764422      -6.28768058
C        9.43609503       4.45766502       0.98172928       2.03043458      -3.43781514       1.57176261
C        3.00860758       0.24865171       4.67193828      -1.27666650      -2.39115090       2.81578472
C        0.72550223       6.41272074       1.63550068       5.84558076      -6.37197376       3.09281310
C        0.91730943       5.48624214       7.42187646       2.91051086      -1.75258948       3.03959696
C        0.13630440       9.83600242       5.46439684       9.74715079      -1.12705482       0.47684318
C        9.24535735       7.03646799       9.42627228      -1.85749658      -2.21518901      -1.58001294
C        1.61351448       5.48034196       3.70026121       3.18357396       1.99481004       0.12661731
C        5.49777261       7.92366454       9.73482262      -0.64253712       3.38054015       0.54581145
C        9.75849039       2.66795317       8.19829267      -2.38233873       3.50663375      -0.47912573
C        6.43090140       8.76232763       5.74281546      -1.33434392       1.04117995       1.18056193
C        7.77701801       8.07469124       2.24318592      -0.40540221       0.08449348      -0.70061483
C        2.01661479       3.10768739       1.69804881      -1.13257302      -0.11858241       2.44748919
C        2.95749907       9.40361668       8.73724695      -0.62592643      -3.85277392      -2.85532541
C        9.23532037       9.40457794       6.92414481      -1.78229231      -0.21054779       0.70535046
C        6.16378996       5.38847002       3.08402402      -3.15509099       0.91197925       5.78498468
C        2.22401476       3.39779529       9.30268587       0.64877566      11.92115661     -18.33231118
C        9.52824528       1.61379382       9.35566028       7.75536398      -5.87046892       2.77865620
C        1.11381977       1.63161197       5.74923058       1.11927005      -2.02911887       0.88896553
C        1.23725037       1.38251579       3.49429596       5.04135326       1.69833121       0.16114987
C        0.91659370       6.32491846       8.67079516       5.48258459       2.67507255      -4.05709503
C        4.68301420       7.73481200       0.77009959      -2.37822975      -6.11212693       0.36580049
C        9.26353283       6.99822501       4.95174202      -0.70308093      -1.83430563      -4.22823579
C        7.56120350       3.72566077       0.13702271      -4.83945150       1.65920460      -0.54476055
C        8.79749732       1.58994905       1.17737392      -5.90039448      -2.29522086       3.77591678
C        7.39774692       1.32348487       6.26807440      -0.20137474       1.51081980       1.07683030
C        7.49131921       1.57043505       2.05417471      -0.26332924       1.17401230      -0.05584500
C        8.49331814       4.74969468       9.09669831       0.17964227       3.38895007      -3.21703033
C        5.90001946       1.28580138       8.17356208      -4.66271546       1.39140704      -1.48318347
C        7.17808329       2.85808454       4.22873644       0.72028874      -3.31624069       4.61003252
C        1.42599200       5.50336254       5.15474181      -4.68059099       3.38192859       0.81495034
C        5.79776695       8.93328830       2.88661615       5.24438272      -4.73570532      -0.12540245
C        6.65824495       2.46359232       5.48427651       2.80173007       0.51184392      -3.45863156
C        4.40056644       3.83686122       5.36617919      -1.48632768      -2.22066991       3.57115073
C        6.29368139       5.04925818       1.61649000       2.90913442      -1.65964008       3.96374423
C        4.81393142       1.56715135       7.22525883       1.19040136       1.20157915       0.09489513
C        2.23113525       2.83591995       0.08882504       3.14670690     -14.18789671      22.35777764
C        7.95492254       4.10412691       4.24371758       1.75635232      -2.38450037      -1.81889506
C        7.37422921       1.54606216       3.53108784       0.42312074       2.56171762      -1.00881441
C        7.57696485       5.53570351       3.71418786      -0.38088575       0.07385681      -2.80029955
C        3.25457293       9.27416374       7.36043127       3.44962357      -3.26043385       0.97665286
C        7.96034336       6.36619051       7.40643542      -5.23027204       0.72253246       0.17203780
C        6.24617436       9.44298613       1.58412770      -2.36343276      -5.88918595       2.20594612
C        7.55024575       5.91895353       1.30441326      -0.02669083       1.60929176       1.33213022
C        5.38718765       1.67840887       4.87784173       0.85229016      -0.68928353       0.30230747
C        4.12415116       1.88702967       9.54942838      26.18249164      -0.95932565     -18.48676931
C        8.44825659       0.43887000       9.52197423      -4.43622134      -2.84537427      -4.28080388
C        8.80300122       1.25334771       4.18377669      -3.12002089       9.54725563      -0.23779783
C        9.50766544       0.13648307       3.33649426      -8.19594245       5.09757347      -6.58260968
C        4.93462098       2.66846089       1.85564277      -3.19664855      -4.15276501       2.68533897
C        6.73617963       8.58487991       7.34406755      -0.16932942       2.20941178       1.50402573
C        4.54164467       6.12494183       6.31605733       1.23857509       0.35115067      -1.57615751
C        0.73600579       7.43587656       0.55930715      37.44445969     -10.80154763      15.47097924
C        9.56593768       4.75352526       2.45358795      -5.08975703      -3.42726104      -0.09382233
C        0.88641376       3.96773103       1.55126039       4.60585125       4.99593789      -2.71123535
C        8.45301957       5.88296774       2.56029601      -2.81269113       0.15783853       1.21255149
C        3.09534319       1.11118712       1.35802570       0.20092885       2.95104066       4.39025665
C        0.77879297       0.99750605       6.97107186       1.86057279       3.70869904      -8.25569100
C        4.54893631       9.08914437       7.06244760      -4.23491559       2.92435323       0.75832055
C        5.08916644       0.76241057       6.00177842       2.30868605       7.36112244       2.09411811
C        7.02846283       4.78971352       9.32935403      -0.56471440      -3.84323539       1.42299217
C        4.94948672       5.16694260       0.77314364       1.05621722       7.25772032      -1.05465044
C        2.06443614       5.47610155       6.44005148      -2.65082304      -1.00800058       0.15146426
C        3.42351100       5.21429829       7.01616736      -0.72548295      -2.08716102       1.39300105
C        6.75689404       7.06263508       7.81254475       2.46497742      -4.27027738      -1.84852597
C        2.98124691       3.70996212       2.64802468       0.77071062       2.26655180       1.80594201
C        5.19059010       5.56273198       3.95466957       1.19370838      -2.62091368      -3.80717682
C        9.35730127       9.20948289       4.12199283     -11.12250892     -12.43962206      -1.38986706
C        3.75284057       5.24095262       8.45456470       5.28399258       0.43442997       0.27206961
C        2.23105367       7.67828174       0.29234956      -1.36789319      -2.37474938      -0.10980841
C        0.31482082       0.92897035       0.05249406     -78.50877439     -30.81822822      80.29035224
C        4.10368219       9.62731466       4.69263972      -2.55301654      -0.11249156       0.56126621
C        0.73174112       3.44649367       9.10271733      -4.15744533       3.99256637       0.69608823
C        7.76585520       6.55882656       4.92516658       0.52539375       1.00255226       0.21081496
C        6.82025973       8.19359128       3.39748059      -2.00966861       2.95129089       0.95722060
C        9.59232130       9.24235095       9.65976982      -1.45449501       0.47130732       2.43933966
C        8.24360181       5.08226627       0.19603167      -0.52766497      -1.65858434       1.59057404
C        9.05529265       6.01950480       8.41973450      -3.20612455       3.66923679       2.90513582
C        0.98529033       6.52317698       2.94956006       2.79488017       1.68099573      -0.57468199
C        1.84066754       8.64134688       9.10040237       4.21383363      -2.83703514      -3.39655996
C        6.39544726       2.40756332       1.49618551       1.11879358       4.52888696      -1.28902750
C        9.89096502       7.66829557       0.30774625     -32.53086360       5.58379409     -14.18755823
C        3.38086124       8.65802395       2.65763611       4.40425347      -1.75218093      -2.17379736
C        8.82946944       1.18704267       5.78161847      -5.82766744       1.14273490      -3.38495679
C        3.75685522       3.76024142       6.57668294       5.15739935      -2.57167873      -3.36034247
C        0.49838680       4.11935593       7.82426775       2.01209685       2.70382411       1.06962766
C        6.89805652       3.75539914       1.40868358      -3.47567070       0.15042310      -2.17982230
C        6.88027799       3.64908761       6.46843912       2.67851439       1.19194513      -0.85879027
C        2.20274546       5.19249159       0.23461980      -5.52361758      -5.50429260      18.63606533
C        5.92447538       2.20718746       0.07679057       8.41868266      12.16922616      15.81458707
C        7.31547302       3.13615057       7.84889477       0.93736853      -2.29063028      -1.48108754
C        1.88729722       6.02082094       9.67070373      -2.97910344      14.95521420     -10.30371761
C        0.06734826       5.82100619       5.36486876       3.83029298       2.30508029      -2.60609665
C        3.76296077       5.80819195       3.77359801      -0.01192538       0.36526727       1.48595028
C        4.52577050       2.79955882       4.38228197       1.80987272       2.30792116       1.91078871
C        6.09024775       8.19884575       0.72231543      -0.35308815      -0.52479048       6.12185056
C        9.32736298       7.89246620       3.87223166      -3.41980032      -5.52099756       0.63105980
C        7.02374899       7.82780322       4.75344743      -0.28139835       1.17857221      -4.90326372
C        4.86654985       8.73869836       5.70575304      -1.86951669      -4.24728348       4.26460111
C        0.76284976       1.13021593       9.61013345      72.03432700      36.67841696     -78.70291690
C        3.51362506       7.05944997       4.45239130       2.23386126      -0.79675439       0.89218497
C        3.44643384       8.22963859       1.32982799       4.19279673       1.84041349       4.23399199
C        5.61421307       6.07265454       7.43526723      -0.85790240      -1.50726244       2.65175255
C        4.52989663       2.80621547       0.45593036       0.85049863       1.07872623       1.68638516
C        1.19007776       7.77392986       3.56075286       3.26433281      -0.91608624      -2.48689998
C        3.30964121       2.56868639       8.68073007       2.87325674       0.16807383      -5.00526389
C        6.25992688       5.05920998       6.35366179       1.85466981       0.43790285      -1.25898866
C        9.06038319       3.73271881       3.39426716      -0.12272099      -3.83727137       4.62279507
C        2.76962927       4.81388201       9.45926620      10.15734090      -9.69162734     -16.40633889
C        5.28333819       9.28800023       9.39166778      -2.99463590       0.93417409      -4.92791860
C        0.48063750       0.95384866       1.46868975       1.87319381      -3.23153827      -0.86606724
C        1.77188703       1.67334615       2.11067647      -0.97224479       1.34135823      -0.41939695
C        6.47076412       0.02157641       6.45729539      -0.74077789      -0.51735713      -5.75494248
C        3.86557039       2.60853099       7.39845834       3.16796867       0.23036570       1.58365398
C        0.63795805       9.41170832       1.92358291      -4.53105591      -0.63743867      -3.66336205
C        5.14860663       5.13220130       5.35436357      -0.16940421      -0.45414417       0.27919789
C        7.27444249       1.73304100       7.66809255      -0.96403881      -2.96465735      -0.63310416
C        7.73132684       0.53223993       8.31448040       3.59884713      -1.51554565       0.98952265
C        8.73021844       3.67034742       8.05618225      -0.81624064      -2.06437305       0.71270188
C        2.24362090       8.94473789       6.36128688       2.60478455       0.12552880       3.65300405
C        0.33439345       2.81097175       5.55110087      -0.33569869      -5.65156632       3.79218398
C        6.07306844       5.75823061       9.75677360      -1.50408315       0.86624416      -6.17463310
C        7.60417948       5.69660504       6.14654657      -0.48297615      -0.05530402      -0.20864399
C        2.69602768       9.19491160       5.04622289      -0.04326706      -0.94081472       1.38011711
C        2.82774761       4.94952340       3.25950924       0.47155750       0.76165852       1.96182149
C        0.52215322       8.91413085       3.22617261       7.29809240      -4.60750994      -7.13482952
C        9.06349662       7.33739985       2.59566404      -4.87072048       1.63031212       4.30938951
C        4.37873273       7.35448177       5.53013532      -4.25304684      -2.59292931      -4.54730397
C        8.13178597       4.29798665       5.81130228      -2.03247599       0.20100742       1.82981411
C        9.31708355       3.86790829       6.60063610      -2.26133600      -0.73390011       1.13256933
C        9.98496022       3.37685107       0.13066490       2.67619425       4.80667366      -0.20752729
C        4.13903395       1.53840721       2.36057754       1.95991780      -0.10328202      -2.24746286
C        6.06371449       0.72296186       3.86849913      -2.73251639       5.13565184      -0.86047603
C        7.77161191       9.45033525       1.60283771      -4.39958491     -12.10217155       4.67347054
C        1.00853277       8.31681574       6.88247711       6.53225339      -0.41415009       4.53252562
C        7.92911419       9.21343063       7.84998907      -1.87059508       5.63615229       0.61546793
C        5.61430831       9.38234189       7.88397421      -4.05802972      -3.73780494      -1.83559328
C        6.53618249       3.56741366       9.02301766       5.27777910       1.76605530       0.83966143
C        1.13569222       7.75639466       8.20807819       3.52924307       3.55392726      -0.94105959
C        5.53011650       1.53320787       9.50739851      -7.24718570     -10.13653012     -19.62484418
C        6.62112862       7.11234720       9.43866800      -3.22362584      -3.04707368      -0.60969123
C        8.23774428       9.03961108       9.29778790       5.02946801       2.88652735       0.64139591
C        9.10266637       9.94945084       5.44242850      -8.37086239       2.20378223       6.72007130
C        1.18295680       5.23834869       1.10074561      -2.33825872      -1.71834831       4.98628888
C        2.94510018       6.33027557       0.30606103       1.06130735       9.55935074      -0.43787817
C        2.55808245       8.08311981       3.96532021       0.50383441      -3.66099095       0.47933615
C        4.29963877       6.37300635       0.61520361      -2.80756960      -1.79913763       0.05064910
C        5.05788390       5.56493470       8.66917219      -4.42528133       1.30688152      -6.59681749
C        4.93889835       0.48197861       2.82491126       0.26151972       4.79444200       3.90569337
C        2.03354631       1.30760571       4.75865599      -4.50837542      -1.36017592      -0.92408719
C        7.89938760       0.39306432       1.26293282       5.25162863      12.95232109      -0.66511432
159
Lattice="10.0 0.0 0.0 0.0 10.0 0.0 0.0 0.0 10.0" Properties=species:S:1:pos:R:3:forces:R:3 Time=2.0 energy=61.03375907499151 pbc="T T T"
C        0.21801267       9.89398672       4.19116570       6.31857931       0.78100238       0.46010499
C        9.50798617       2.56478389       3.85389903      -3.52797576       3.63707339      -1.57528893
C        3.29433762       1.97076430       0.08441266      -8.57897654       2.88325603       8.58479353
C        4.14754111       2.92873937       3.00396170      -1.28351073      -0.59685043      -0.20841718
C        0.16884876       8.83824710       0.79434179      -2.76041614       1.95889665       0.63678122
C        4.49703355       9.15383036       3.31079943      -0.35133262       1.48315721      -4.42333213
C        7.31954903       7.36178135       1.01777999      -0.20402019      -2.34608549       3.69129002
C        9.66683354       2.35866819       6.60218501      -0.52457296       0.58517598      -5.41813228
C        3.93062822       9.94073986       9.71852893       0.27839316      -7.68609183      -6.31685439
C        9.43453303       4.46047156       0.98652911       1.51542763      -3.45920971       1.34558898
C        3.00225585       0.28089432       4.67214598      -1.34015944      -4.93275715       3.44513052
C        0.72113983       6.42170489       1.63424015       5.59226495      -4.80089599       2.70443269
C        0.92649763       5.48401125       7.42323409       2.78115770      -2.26883641       2.92731557
C        0.20391833       9.83130376       5.47370753       1.34320418       0.35342252      -0.38273602
C        9.24101054       7.03493401       9.42662631      -0.86543090      -1.64585243      -0.39237222
C        1.61964169       5.47784042       3.70715767       2.96504059       2.14673728      -0.11053942
C        5.48924727       7.92995741       9.71512385      -0.09383435       3.43987822       2.32269851
C        9.76113711       2.66682749       8.19596710      -2.34055973       3.29778715      -0.55505285
C        6.43224526       8.76012169       5.73738328      -1.24073954       0.96209918       0.96460433
C        7.78680855       8.08229722       2.24627434       0.05072459       1.36382004      -0.77355173
C        2.01905201       3.10439386       1.69741770      -1.24139678      -0.47408532       1.37887309
C        2.95841605       9.40773655       8.73692331      -0.51651260      -3.88268000      -2.83577441
C        9.23192095       9.40251472       6.91550874      -2.21035994      -0.20878908       0.42579737
C        6.16964232       5.38868945       3.08936451      -3.25844235       0.93661984       5.52884174
C        2.22412508       3.43868573       9.23451502       1.26910477      -1.20357735       0.76837435
C        9.51709913       1.61647933       9.35164531       7.36554469      -5.76927724       3.00215848
C        1.11945459       1.63544233       5.74759365       0.93130241      -1.95600850       0.66610524
C        1.23682849       1.38496797       3.49076828       4.85610450       1.63300815      -0.06986605
C        0.91726115       6.31865412       8.66763950       6.17240374       2.29616951      -3.30344787
C        4.68141984       7.73344981       0.77558413      -2.40021893      -5.81831708       0.15664217
C        9.26193620       6.99148784       4.96158452      -0.54647024      -2.63649839      -3.73696911
C        7.55083203       3.71361549       0.14460888      -4.61292636       1.83290198       0.21595311
C        8.79953275       1.58545269       1.17961379      -5.84208342      -3.06664630       3.49944520
C        7.39831372       1.33030236       6.26992028       0.07656901       1.52829689       0.92354720
C        7.49179816       1.57180337       2.05827304      -0.47065880      -0.09407482      -0.14560868
C        8.50907474       4.76067937       9.07334873       0.29015327       4.27851216      -2.16617317
C        5.90343367       1.28237004       8.17219721      -4.98132917       1.69601135      -0.50973968
C        7.17235218       2.85765952       4.23529316       0.73409885      -3.11864789       4.78106199
C        1.42402317       5.51077290       5.16176411      -4.65393594       3.25226208       0.73812156
C        5.79690654       8.93139691       2.88964156       5.01495091      -4.78232110       0.15856072
C        6.66184119       2.46998819       5.48109587       2.83042699       0.55363298      -3.65507401
C        4.40394014       3.84411415       5.36200278      -1.47715356      -2.13402941       3.68266107
C        6.29140859       5.04998558       1.62357202       2.80330586      -1.47151188       4.11956513
C        4.81585119       1.56242192       7.22317014       0.99587900       1.06415312      -0.38208390
C        2.23320007       2.78994041       0.16867718       3.55945997      -1.15272963       4.46040416
C        7.95092234       4.10778810       4.25082112       1.63323241      -2.29406857      -1.60056316
C        7.36790754       1.54371308       3.52478704       0.41683694       2.33135887      -1.18086210
C        7.57714218       5.53721238       3.71612977      -0.43952486       0.03884377      -2.69173172
C        3.25399509       9.26685209       7.36007270       3.54200759      -3.24798775       1.08383344
C        7.96352505       6.36244061       7.39814899      -5.44411772       0.76035449      -0.08999105
C        6.24068622       9.43219866       1.58776342      -1.09922697      -5.78717958       1.94843778
C        7.55452187       5.92426841       1.31138952      -0.07725574       1.17192445       1.15487344
C        5.39678538       1.67422654       4.87773028       0.70240706      -0.94122839       0.32768732
C        4.18023263       1.88147788       9.51273915       4.82192592       1.49055754      -4.55125782
C        8.45026942       0.43997919       9.51571447      -4.67973866      -2.71231995      -4.08407350
C        8.80578435       1.25790515       4.18479311      -2.64915447       8.89169526      -0.20072289
C        9.48113658       0.16530612       3.29621379      -4.25358681       1.35126234      -0.37254911
C        4.94479779       2.65991668       1.85917575      -4.09764045      -3.93881886       2.32140114
C        6.73822316       8.58455372       7.34960123      -0.08922106       2.12490246       1.82744319
C        4.53684678       6.12236543       6.31084512       1.36196930       0.40039509      -1.48456747
C        0.81121952       7.41782952       0.58551778      11.16199355      -3.89652278       7.73544089
C        9.55443261       4.74493626       2.46067542      -5.08268043      -3.63552802       0.14077789
C        0.87825924       3.96122271       1.54561642       4.15017081       5.21935740      -2.80966660
C        8.45449195       5.88647880       2.56528097      -2.89931878       0.12541890       1.17774558
C        3.08845037       1.11267923       1.35186908       0.45954965       2.98705859       3.54208125
C        0.77860235       0.99456112       6.97110333       1.89653620       3.92197067      -8.16391373
C        4.54319479       9.08588899       7.06766905      -4.22025358       2.90052862       0.46444346
C        5.09308037       0.76255705       5.99665752       2.51029491       7.24075879       2.09063103
C        7.02014891       4.80104006       9.32786458      -0.40502341      -4.05860566       1.44223575
C        4.95316854       5.17551845       0.76645617       0.87937490       7.18337473      -0.91753807
C        2.06257753       5.47123024       6.44226997      -2.98345241      -0.87704380       0.11497530
C        3.42648696       5.21142123       7.02090932      -0.64682325      -2.07349453       1.53237435
C        6.75918201       7.06155199       7.80690701       2.42577610      -4.13082563      -1.82753949
C        2.98630743       3.71625398       2.65033657       0.84702766       2.47550888       2.01344319
C        5.19270633       5.56867252       3.95039118       1.28117976      -2.75913410      -3.60906336
C        9.32391438       9.17309874       4.13651598      -4.11926229      -4.56721244      -2.23292701
C        3.74801044       5.24234353       8.44657006       4.28972002      -0.00620538       0.98799495
C        2.22449585       7.67868926       0.29112405      -2.56666232      -2.33241357      -0.22489121
C        0.32651312       0.92738135       0.05487295     -80.59671745     -32.18548007      84.18739328
C        4.12405961       9.62689456       4.68485403      -3.34055260       0.27417321       0.61848611
C        0.74507986       3.44958557       9.08646752      -3.44121003       3.85162598      -0.04245595
C        7.76800127       6.55320724       4.92730908       0.73582745       0.71604163       0.33742056
C        6.82181785       8.19810874       3.40557346      -2.39050046       2.82895782       1.53566462
C        9.59279992       9.24975124       9.65694014      -1.54809761       0.15643914       2.15961469
C        8.24150825       5.08224266       0.22456737      -0.03180741      -2.02941068       0.17289772
C        9.05262749       6.01573195       8.42546467      -3.39901991       3.54060412       3.33982441
C        0.98679978       6.51862090       2.95070234       2.70868972       1.40996259      -0.49536591
C        1.84175659       8.63572133       9.10301401       3.91588836      -2.75698785      -3.62440630
C        6.39714782       2.40759354       1.49011814       0.65036056       3.89953306      -1.91861838
C        9.82025021       7.68111649       0.28020112      -5.51282410      -1.88296769      -6.85261451
C        3.38139421       8.65114463       2.65894353       4.24035889      -1.69709272      -2.39578030
C        8.81135586       1.20063026       5.78552188      -5.51601870       0.64417280      -3.06575767
C        3.75943028       3.75721929       6.57829032       5.07477954      -2.55460744      -3.31351540
C        0.50221784       4.13136695       7.81464925       2.05573639       3.26554589       0.97800425
C        6.89658722       3.74760250       1.40875180      -2.80686748       0.96222280      -2.36915678
C        6.88672270       3.65153495       6.46790942       2.62929553       1.17445401      -0.83674385
C        2.19442267       5.19271724       0.28666877      -2.36046977      -0.77242330       6.52697720
C        5.95976946       2.27247348       0.12311798      -0.14121746      -2.21246166       0.93824089
C        7.30746555       3.12962908       7.84770965       1.04501128      -2.13871692      -1.35725556
C        1.86267686       6.04776498       9.64321561      -0.43565649       8.10542991      -5.78438466
C        0.06692657       5.82497536       5.35578154       3.70605295       2.58759984      -2.55029610
C        3.75943400       5.80996847       3.78006008       0.26841247       0.82522423       1.32240031
C        4.51928083       2.79341016       4.37879565       1.78708065       2.45107542       1.55754004
C        6.10753873       8.20563817       0.73965329      -1.04516397      -1.28168618       4.53508945
C        9.33500103       7.89623573       3.86955060      -3.47615395      -4.76585534       0.72134153
C        7.02264369       7.83424692       4.75598204      -0.66633929       1.68572979      -4.85765091
C        4.85960618       8.73620825       5.70944818      -1.99012929      -4.33318506       4.05167329
C        0.77136811       1.13148971       9.60518999      74.56035978      38.41205771     -82.41135472
C        3.51884222       7.06516343       4.44492921       2.13020915      -1.20629322       0.93331024
C        3.44022289       8.22840919       1.33523843       4.25280938       1.99418728       4.65426347
C        5.60849143       6.07709343       7.42857964      -0.71761355      -1.62946739       2.53185756
C        4.52921898       2.81649076       0.46313929       1.17122645       0.77482459       1.81469460
C        1.19008818       7.77973300       3.56662065       3.19291326      -0.28477271      -3.07868666
C        3.30797785       2.57379981       8.67222020       3.66700837       0.31746080      -6.69856641
C        6.25963506       5.06164075       6.35152395       1.90480493       0.50374687      -1.11090253
C        9.06375226       3.72911465       3.38615872       0.09553952      -3.50232582       4.46308388
C        2.79442976       4.77943790       9.42424318       4.51329358      -5.98499106      -8.74631950
C        5.27440231       9.29895275       9.38570658      -3.09795284       0.84647334      -4.82197122
C        0.47682199       0.95631807       1.46200197       1.75081850      -3.36321225      -0.99707200
C        1.76481657       1.67695957       2.11278853      -0.99841993       1.21736653      -0.07475335
C        6.46330669       0.02154783       6.44766154      -0.73619979      -0.49397512      -5.90216901
C        3.86289117       2.60560357       7.39831550       2.76135263       0.46159687       2.22593954
C        0.63238582       9.41581371       1.91702753      -4.48762735      -1.35720401      -3.42301302
C        5.14195273       5.13511426       5.34700381      -0.26290759      -0.64531432       0.26057439