159
Time=1.00000000 pbc="T T T" Lattice="10.00000000 0.00000000 0.00000000 0.00000000 10.00000000 0.00000000 0.00000000 0.00000000 10.00000000" energy=-148.95184994 virial="409.59496845 -3.09452992 -11.85452008 -3.09452992 371.08715520 -30.61312684 -11.85452008 -30.61312684 308.60977577" stress="0.43664440 -0.00309453 -0.01185452 -0.00309453 0.39409964 -0.03061313 -0.01185452 -0.03061313 0.33272164" Properties=species:S:1:pos:R:3:vel:R:3:forces:R:3
C 0.18288972 9.89055453 4.16302815 0.04482892 0.00835813 0.02513679 41.33960214 11.38691653 20.13835533
C 9.51409936 2.57093471 3.84011269 0.01033820 0.00366030 -0.00242686 6.64461387 -3.64595312 2.78956986
C 3.34831190 1.98476468 0.05559701 -0.04289604 0.00941762 0.02412628 -40.27833545 2.69621526 30.01907358
C 4.15566143 2.93527094 2.99951136 -0.00010064 -0.00018564 0.00348468 -1.57366514 0.50645213 2.34860485
C 0.15311139 8.84922214 0.80257324 -0.00028393 -0.00040753 0.01076164 0.95275275 0.69793346 4.91318379
C 4.50046532 9.13937876 3.31146431 0.00538997 0.00479036 0.00329048 -2.25405913 3.36509396 -0.03444170
C 7.32143456 7.35255540 1.02230818 -0.00672180 0.00063481 -0.00821055 -1.70882885 -1.24633211 -0.44498328
C 9.68177355 2.35493953 6.59142216 -0.01032534 -0.00860811 0.00936732 -7.06801980 -3.13114991 4.86778723
C 3.91819627 9.92944019 9.72594826 -0.00530481 -0.00502338 -0.00703854 1.14257798 -4.56504889 -0.78874288
C 9.43144447 4.46223488 0.97201090 -0.00605684 0.00757791 -0.00460929 -0.40161980 -0.51529933 -0.43365860
C 3.00764425 0.24994954 4.66670575 -0.00484374 0.02444848 -0.00300778 -5.99519021 21.56070474 -4.54005566
C 0.72651601 6.40815762 1.63548347 -0.00338768 0.00406158 -0.00096120 -0.07889561 1.42898137 0.01327191
C 0.90985508 5.49341858 7.41799192 0.00105035 0.00572902 -0.00314109 1.91775550 -2.11515331 1.28713494
C 0.13356808 9.83128571 5.46447931 0.04762658 -0.00647309 0.00787578 44.22340168 -6.76900535 5.04532536
C 9.24176235 7.03916009 9.41584972 -0.00556702 0.00309986 -0.00717003 -4.70398727 -3.58576910 -5.67592101
C 1.60397923 5.48795182 3.70141784 -0.00272551 0.00478001 0.00744011 -0.45994873 -0.15387086 1.67375952
C 5.48891562 7.92772014 9.73197694 -0.01366052 0.00913886 -0.01470546 -6.71261845 2.76036840 -17.48373852
C 9.74679887 2.65720048 8.20535702 -0.00840170 -0.00957950 0.00410445 -1.44546286 -5.37773621 1.41273200
C 6.43541052 8.75972988 5.74214929 0.00597562 -0.00402971 -0.00643282 -0.43544872 -1.56751703 0.99063066
C 7.76454390 8.06785254 2.23117056 -0.00394923 0.00034858 -0.00812312 4.47370028 1.08562426 -1.22911795
C 2.00962700 3.11673067 1.70291372 -0.00409530 0.00602760 0.00460947 -0.42896302 -1.92471803 -0.70768704
C 2.96131696 9.39668180 8.73816521 0.00488254 -0.00317182 0.00039701 -0.45916635 1.08647542 0.30324807
C 9.23874747 9.40666986 6.93316340 -0.00070714 0.00134977 0.00030715 1.98027797 -3.23684319 0.13381713
C 6.16318173 5.38837624 3.07186986 0.00442137 0.00018643 -0.00675858 1.74191136 -0.17381570 1.22383688
C 2.22216406 3.41017896 9.31002178 -0.00202418 0.04153455 -0.04264287 0.00436823 33.67473343 -47.14171736
C 9.53099533 1.61641008 9.35495434 -0.00406228 0.00173008 -0.00119301 -8.21007970 6.44834957 -6.14298368
C 1.11751575 1.62662393 5.75296362 0.00696093 -0.00159118 0.00213570 5.76410705 1.38150959 0.05497356
C 1.23726304 1.38277477 3.50442426 -0.00204176 0.00143725 0.00602425 4.07117184 3.41708735 0.69710127
C 0.92299686 6.32919751 8.66332144 0.00628366 -0.00234469 -0.00869062 1.66511989 1.06509427 -4.38701680
C 4.68835734 7.72735367 0.77262388 0.00474888 -0.00661166 0.00640636 -2.78465361 -4.94288957 4.56980976
C 9.27163301 6.99938379 4.94738687 0.00667486 -0.00341028 0.00484524 -0.96637411 -5.73647240 2.36116835
C 7.57414192 3.73147353 0.14221649 0.00374184 -0.00464623 0.01077288 -3.26171507 -3.83357146 4.64179341
C 8.79416097 1.59930215 1.18528826 -0.00122912 0.00480727 0.00768108 0.24874503 0.03765815 5.55907331
C 7.40184708 1.31568191 6.25994039 0.00526808 -0.00067919 -0.00557609 -1.74032427 -0.10233013 -1.06181655
C 7.49903679 1.57798389 2.04315914 0.00794893 0.00797405 -0.00633628 0.35387831 1.99216155 -0.51144499
C 8.49169986 4.74370182 9.08993035 0.01120706 0.00408033 -0.02029772 6.64056419 2.95905736 -23.09968616
C 5.89706665 1.28405893 8.17780858 0.00086922 -0.00467344 0.00359746 -0.91478672 -1.27566861 -2.56718687
C 7.17919436 2.85710472 4.21752019 -0.00429479 -0.00135376 -0.00423840 -1.59128607 -0.34479034 0.35206582
C 1.42123131 5.49320263 5.14851158 -0.00625404 -0.00302457 0.00078615 -1.35775589 1.05264052 0.88277544
C 5.80154567 8.92832288 2.88974459 0.00154134 -0.00627458 0.00614716 3.35032339 -0.84015742 -0.56623907
C 6.64714760 2.45042254 5.48847309 -0.00696124 -0.00635568 0.00037522 -0.42037864 0.07912396 0.62774618
C 4.40027344 3.83678198 5.37631480 0.00358766 0.00746031 0.00596819 -0.66171295 -0.37762661 -1.11190652
C 6.29822504 5.04622705 1.62030405 0.00259517 -0.00220669 0.00847832 -1.04536750 -0.18359187 5.46308522
C 4.80930893 1.56805879 7.22142476 -0.00256808 -0.00370255 -0.00535414 -0.04235130 -0.17761169 -0.84375710
C 2.23475343 2.82947467 0.07661800 0.00428002 -0.03996379 0.04727255 2.45634381 -33.98067818 51.98297107
C 7.96310789 4.09582495 4.24325058 0.00385783 -0.00502569 0.00614096 -0.00016156 1.59183895 1.46985022
C 7.37476510 1.55165620 3.52934508 -0.00565487 0.00333225 -0.00785411 -0.42315909 -0.50778229 -1.04365501
C 7.58177563 5.52651359 3.71247604 0.00577392 -0.00749806 0.00026234 -2.14539676 0.07057995 -0.18347467
C 3.24753999 9.27636410 7.36518417 -0.00661200 -0.00492029 0.00412620 -0.95103685 -0.53376656 -0.44311198
C 7.96274498 6.37200306 7.42264099 0.00479258 0.00199548 0.00748502 1.63723598 -0.39233962 -0.53771263
C 6.25110575 9.45493435 1.57184207 0.00049785 0.00199516 -0.00775978 -2.93263205 -2.76154994 -1.05030168
C 7.54273065 5.91475794 1.29216416 -0.00381622 0.00087598 -0.00557156 2.09914548 0.86651549 1.60406663
C 5.37288004 1.67838828 4.87825729 -0.00526758 -0.00454593 -0.00001832 2.22177223 0.63684042 1.15619435
C 4.12886327 1.88252975 9.55148455 0.04320984 -0.00735546 -0.02272433 37.90969310 -7.43229583 -27.40888773
C 8.43277823 0.43774178 9.53368707 -0.01168015 -0.00193785 0.00637712 -4.57703745 4.78612498 -2.36510959
C 8.79172450 1.26128643 4.17166829 -0.00705960 0.01021721 -0.00945339 -2.62440040 4.95644638 -3.63915707
C 9.51143425 0.12915793 3.34646311 -0.01383345 0.01398373 -0.02140329 -23.14856032 21.99607380 -26.00847592
C 4.92037874 2.66635347 1.85691593 -0.00449878 -0.00980018 0.00533168 3.01871559 -1.90126891 -2.47538534
C 6.73546559 8.57537491 7.33283503 0.00131291 -0.00823823 -0.00544564 0.14271452 -3.44360490 0.07302085
C 4.54467584 6.13453365 6.32723074 -0.00184062 0.00668735 0.00549511 0.20798356 0.18348162 0.75778599
C 0.73864027 7.43488060 0.56632566 0.05386796 -0.01312614 0.02314648 58.52973770 -15.40316399 25.59373357
C 9.57108243 4.76056207 2.44073439 -0.00446772 -0.00024950 -0.00571680 -5.00470157 -3.91275035 0.59455514
C 0.89466817 3.97741629 1.55434997 0.00025655 0.00351001 -0.00308545 -1.01485813 -0.66294328 1.28115822
C 8.46157172 5.88148153 2.56062257 0.00932119 0.00169683 0.00554670 1.09417366 0.73521455 -1.11007208
C 3.10561973 1.11143803 1.35737928 0.00354190 0.00184692 -0.00742967 -1.43862853 -0.55051435 1.96949206
C 0.78398602 1.00244063 6.97881662 0.00454816 0.00304662 0.00719314 0.93398068 -2.55197569 1.43536594
C 4.55809645 9.09793893 7.06456524 0.00371091 0.00539887 0.00728956 -2.77735674 0.27371067 -0.46227984
C 5.09157929 0.77332999 6.01718566 0.00542398 0.00931534 0.00917814 1.97854224 3.55865532 1.92324846
C 7.03172428 4.78358912 9.32048724 -0.00300345 0.00334176 -0.00862975 -6.19372873 4.16438637 -3.80174241
C 4.95719093 5.16523769 0.77430036 0.00951284 0.00668243 -0.00612368 4.63561074 0.55954656 1.35429759
C 2.06616549 5.47629705 6.43995522 0.00051026 -0.00456380 0.00178582 -2.17907791 -0.22618469 0.35005896
C 3.41553664 5.21968458 7.00740422 -0.00470180 0.00261661 -0.00348370 0.17815855 -0.51778454 0.03007016
C 6.75140854 7.05996501 7.81375204 -0.00313516 -0.00403998 -0.00520895 0.14016965 0.78429819 2.23827825
C 2.97898144 3.70046397 2.64755192 0.00264284 -0.00335545 0.00203794 0.15286618 1.84382420 0.26396077
C 5.18768728 5.56351396 3.95472510 -0.00010155 0.00691725 -0.00424190 -0.27095584 -0.71380283 -0.59006544
C 9.35397491 9.21573122 4.11204797 -0.02499974 -0.02107683 0.00236767 -28.86727082 -25.14116243 7.66755287
C 3.75690834 5.24017877 8.46943715 -0.00102990 0.00072788 0.00645955 -0.07031654 -0.47526295 -0.69112514
C 2.23683574 7.68127986 0.30275735 -0.00077347 0.00127370 0.00776475 0.12645011 5.21302661 3.10317826
C 0.31952674 0.91972784 0.05686498 0.01118178 -0.00890461 0.00161276 13.56649977 -0.84016049 6.24588522
C 4.09897972 9.62515216 4.69644852 0.01124421 -0.00013081 -0.00426270 11.14017468 -6.33124639 0.59448644
C 0.72717616 3.44595215 9.10641865 0.00701151 0.00137305 -0.00895668 4.83587725 2.76581635 -9.57374122
C 7.76111527 6.56700701 4.91955806 -0.00268365 0.00249295 -0.00382948 0.69978887 -1.03089496 1.62443916
C 6.82260518 8.18069669 3.39025586 0.00320168 -0.00799053 0.00006604 1.13654066 -0.39142853 1.64364748
C 9.59468850 9.24267705 9.65963355 0.00264502 0.00604880 -0.00107072 0.38967594 4.03767196 -4.39250045
C 8.24561524 5.08085890 0.19642586 -0.00055506 -0.00255725 0.01986117 1.69224627 2.94744626 21.21803657
C 9.05631133 6.02999813 8.41094427 -0.00062822 0.00554709 -0.00280866 -2.73754888 2.51199763 -0.35584661
C 0.99159329 6.52297851 2.95647144 0.00644799 -0.00484301 0.00706802 2.78276417 0.34477342 1.23634502
C 1.84488338 8.64612442 9.09430909 0.00418904 0.00005347 -0.00367765 2.10545299 -2.74104268 1.22807247
C 6.39352704 2.40163266 1.49636378 0.00024332 -0.00615409 -0.00558812 -1.07985218 1.80067242 -0.40310006
C 9.89399560 7.67383920 0.30690690 -0.04571825 0.01373078 -0.02217663 -54.23540388 11.45659807 -17.28735406
C 3.37044644 8.65950695 2.65677051 -0.00834261 -0.00435007 0.00067030 -2.58693434 -2.23331366 -0.00051406
C 8.83830755 1.18348193 5.77290978 -0.00585995 0.00742743 -0.00432310 -8.88203636 5.83960784 -1.70017162
C 3.75931194 3.75907266 6.57154655 0.00462579 -0.00396621 -0.00318382 0.43284284 -0.24616990 0.17335950
C 0.49245395 4.12101052 7.82037481 -0.00314797 0.01162809 -0.01192402 2.68160332 5.07296594 -3.78143370
C 6.90723025 3.75936116 1.40392926 0.00698564 -0.00375703 -0.00467237 1.10890177 -1.33993962 0.59347388
C 6.87258848 3.65402279 6.47525834 -0.00114118 0.00715681 0.00638886 0.15022369 -0.23895195 -0.54644217
C 2.20196128 5.18850430 0.22504880 -0.00555486 -0.00142616 0.02750558 -11.24384516 -5.30420858 39.82230763
C 5.92996901 2.20758014 0.08886364 0.03044463 0.04651205 0.04351984 21.94831432 38.91887619 30.20937937
C 7.32980358 3.14997092 7.85546696 0.00607364 0.00657843 0.00544643 -1.04552436 -0.30495481 -0.69843091
C 1.88529948 6.02136805 9.66678878 -0.01968651 0.02037443 -0.02091295 -16.74573985 18.56419140 -25.34951430
C 0.06370349 5.82777328 5.37859813 -0.00372485 0.00918995 0.00496205 -0.36958597 3.50218016 -0.91141788
C 3.77386288 5.80812889 3.76858350 0.00674518 0.00103777 0.00125869 0.47877850 1.54083148 0.43616803
C 4.52734453 2.80217396 4.39256924 -0.00519033 -0.00370889 0.00613701 0.31157685 0.29168511 0.71647126
C 6.08689547 8.19641614 0.73548663 0.00923685 0.00256160 0.02176063 10.06184941 3.64856498 18.93172317
C 9.31982633 7.88264386 3.87356141 0.00005166 -0.00468127 -0.00273244 0.31204356 -1.33232265 2.48013256
C 7.02700770 7.82682831 4.74412260 0.00236497 0.00486846 -0.00637527 -0.72880397 1.61867691 -0.64201116
C 4.87600124 8.73676002 5.70838728 0.00195271 -0.00302942 0.00594626 0.45178788 -3.28500896 0.79417445
C 0.76186661 1.11738647 9.61194401 0.00513011 -0.00974883 -0.00281560 2.27683890 -5.39095250 2.81432537
C 3.50885234 7.04577064 4.45359648 0.00036193 -0.00717150 -0.00620231 0.49691269 -0.87672372 0.32667466
C 3.44791464 8.23096990 1.33265576 -0.00377664 -0.00095099 0.00762753 -2.39329424 2.48748797 1.24925806
C 5.62698246 6.06989826 7.44501531 0.00650664 0.00168393 0.00363431 0.06021088 -0.16015683 -2.11873938
C 4.54027793 2.79915735 0.44933352 0.00844705 0.00225928 -0.00039696 3.03524175 3.73936192 3.58397535
C 1.19480483 7.76860638 3.55756771 0.00257916 0.00139040 0.00216530 5.21426495 -1.33442950 1.46291934
C 3.30768931 2.55911747 8.67465865 -0.00406978 -0.00483031 -0.01195145 1.09774979 1.59893242 -6.17469987
C 6.25428593 5.05844430 6.35491198 -0.00600450 0.00185241 -0.00129382 0.84542101 -0.32835845 1.32998993
C 9.05514505 3.73546299 3.39503803 -0.00200316 -0.00158694 -0.00725140 1.57298623 1.71805958 -1.09404546
C 2.76986163 4.82588185 9.45843065 0.01742337 -0.01350078 -0.02493680 21.63990204 -23.28531371 -29.22280085
C 5.28536049 9.28348477 9.39562493 -0.00614292 0.00534978 -0.00000559 -2.27411783 3.29888462 -5.37904719
C 0.48490873 0.94567061 1.47423977 0.00039654 -0.00558842 0.00105826 0.27338925 0.34846591 -5.43132194
C 1.77675662 1.66647799 2.10159132 -0.00069417 -0.00200210 -0.00640028 -3.78631715 -2.66420966 -0.90026697
C 6.47723092 0.02709866 6.46250509 -0.00051278 0.00306576 -0.00132735 -1.50303370 5.53460741 -8.17232043
C 3.86497592 2.60831840 7.39660356 -0.00294583 -0.00353733 -0.00236222 -0.95044686 1.08120621 0.90680040
C 0.64727450 9.41706936 1.93325364 0.00382263 0.00688371 0.00416839 -0.45530863 5.86162086 -3.39905707
C 5.15366506 5.13571882 5.35503435 -0.00211728 0.00635593 -0.00650993 0.76598641 0.14220866 -0.30942249
C 7.27305532 1.73083447 7.66852398 -0.00309635 -0.01150481 0.00481834 -1.44819896 -3.55848711 0.11045710
C 7.73054229 0.52497350 8.30187222 0.00438592 -0.00030625 -0.00426246 0.63146187 3.97169361 2.50295668
C 8.72974819 3.67999505 8.05679072 0.00286412 0.00319756 -0.00734221 -3.27164016 -0.19292363 -0.13178483
C 2.24218227 8.95729859 6.35858127 -0.00264420 0.00624924 0.00643675 -1.80869448 -1.84076876 4.47022769
C 0.33560832 2.81199184 5.55547451 -0.00161297 0.00137559 -0.00166989 3.85087115 2.37455744 -8.00291676
C 6.06372487 5.74746906 9.75493969 -0.00867137 -0.00775966 -0.00801120 -1.65875226 -1.11717359 -7.37173091
C 7.60217025 5.69326426 6.15110768 -0.00274475 0.00218393 0.00425085 0.88386590 -0.17508405 -1.16225753
C 2.68319879 9.19171322 5.03518404 -0.01223523 -0.02251649 -0.00514948 -6.98118084 -16.77990027 2.65519997
C 2.82895163 4.95577453 3.26948811 -0.00070945 0.00303370 0.00123802 -0.25164607 -1.74486768 -1.64343743
C 0.51630213 8.90965454 3.22433087 0.00815894 -0.00950508 -0.00531140 10.83971244 -3.73361961 -7.17600740
C 9.05780459 7.33189673 2.59295185 -0.00345172 -0.00154360 0.00173050 -6.33955159 -2.36603100 -0.05313474
C 4.37286052 7.34862035 5.53694488 -0.00416304 -0.00439960 0.00453367 -2.24958991 -1.09534237 -1.87029109
C 8.12907678 4.29189778 5.81249227 0.00006236 -0.00523046 0.00184184 0.68612889 0.57700913 -0.10065775
C 9.31434480 3.87657102 6.59879291 -0.00119646 0.00210589 0.00236334 -1.59655182 0.46026738 0.64839233
C 9.97905213 3.38785951 0.13010963 -0.00621978 0.00612778 0.00351797 -2.79323019 1.24055179 12.17800815
C 4.13720531 1.54066923 2.34979336 -0.00698925 0.00482882 -0.00608803 -0.78315187 -2.56541691 -0.22755559
C 6.05929855 0.72318744 3.87126802 -0.00072988 -0.00142182 0.00405892 -0.69320493 4.04513144 -1.44177835
C 7.77138328 9.45414036 1.60395632 -0.01167259 -0.04261722 0.02356072 -9.37593176 -40.89987072 18.16090451
C 1.01215833 8.32172049 6.88939383 -0.00265629 0.00612634 0.00216879 0.26236094 1.40881746 0.65967941
C 7.92614925 9.21199661 7.85317437 -0.00568134 -0.00564947 0.00314126 2.93638287 -1.78282954 -1.99952152
C 5.60890752 9.39144183 7.88181811 0.00202421 0.00498383 -0.00120607 0.63907572 -0.09460898 2.70337784
C 6.52661223 3.55451963 9.03108107 -0.00426629 -0.01009624 0.00212977 1.37300810 -5.16830743 0.29554723
C 1.13231188 7.75756786 8.21092650 -0.00617864 0.00411462 0.00170256 0.87011073 1.93392096 -2.62399911
C 5.52699498 1.53163888 9.50320358 -0.02362917 -0.05044613 -0.04352430 -21.07325829 -35.66508583 -32.70947481
C 6.61560328 7.10490141 9.43015903 -0.00471647 -0.00407994 -0.00704469 -1.49320190 -3.26487663 -3.29567375
C 8.23112954 9.04663974 9.29193846 -0.00077726 -0.00283364 -0.00640339 2.22380544 -3.81768186 -1.17476559
C 9.10159874 9.93664557 5.43743877 -0.03939048 -0.01091572 0.00407764 -40.82924161 -3.83736312 7.16755300
C 1.18453591 5.24209242 1.09881001 0.00049188 -0.00616953 0.00247974 2.23070336 -3.46552746 -0.54840341
C 2.94659262 6.33797886 0.30971743 0.00298669 0.01046539 0.00686905 7.23029613 9.97510284 7.92131464
C 2.56575194 8.08781671 3.96869771 0.00677685 0.00189453 0.00311864 -0.33634562 -1.20047808 -1.71555782
C 4.30936685 6.37278576 0.61228494 -0.00045504 -0.00446061 0.00462068 -5.30777487 -1.38518337 3.24593268
C 5.04767447 5.57094405 8.67045021 -0.00908768 0.00048510 0.00336909 -0.32901822 0.37606813 -2.61698737
C 4.93652851 0.48568153 2.82739593 0.00472586 0.00400186 0.00072538 3.00593920 2.33617199 0.96961416
C 2.03325973 1.30869362 4.76054823 -0.00181002 -0.00192761 -0.00026474 -0.19853993 0.76874967 -3.84153032
C 7.91104245 0.38931196 1.25861879 0.01143239 0.04315977 -0.01769997 6.24903846 41.29879031 -12.39564931
159
Time=2.00000000 pbc="T T T" Lattice="10.00000000 0.00000000 0.00000000 0.00000000 10.00000000 0.00000000 0.00000000 0.00000000 10.00000000" energy=-199.46349430 virial="347.71340598 -4.05627658 -21.44212085 -4.05627658 321.64112592 -20.95355262 -21.44212085 -20.95355262 271.61832093" stress="0.41321050 -0.00405628 -0.02144212 -0.00405628 0.37077602 -0.02095355 -0.02144212 -0.02095355 0.32893226" Properties=species:S:1:pos:R:3:vel:R:3:forces:R:3
C 0.24432284 9.90348625 4.19625358 0.07159611 0.01583243 0.03542432 25.30285472 7.22191024 5.47456506
C 9.52710639 2.57313060 3.83880627 0.01559371 0.00075893 -0.00014258 6.44007752 -3.57762560 2.89762187
C 3.28923792 1.99526525 0.09178057 -0.06769268 0.00846582 0.04491657 -21.45802945 -5.06593424 21.74265712
C 4.15492873 2.93528872 3.00393937 -0.00136712 0.00021215 0.00537307 -1.57949889 0.48392065 2.35291142
C 0.15321013 8.84909493 0.81530827 -0.00015076 0.00070894 0.01421271 -0.62118107 2.08175307 3.67898048
C 4.50494994 9.14552072 3.31474096 0.00344192 0.00737151 0.00315830 -2.59601098 3.06121887 -0.29463954
C 7.31402640 7.35268961 1.01391890 -0.00808494 -0.00048866 -0.00849407 -1.68498155 -1.55077422 -0.26089845
C 9.66860932 2.34507379 6.60274464 -0.01558562 -0.01108642 0.01285322 -6.02854313 -3.03913239 3.81108969
C 3.91335038 9.92258324 9.71859292 -0.00442212 -0.00879035 -0.00757036 1.05505445 -4.81358848 -0.53532959
C 9.42522632 4.46960581 0.96722743 -0.00664863 0.00715120 -0.00494535 -1.07175804 -0.54708346 -0.40304642
C 3.00039251 0.28305796 4.66187444 -0.00900525 0.03845586 -0.00579244 -4.36574048 13.31357399 -2.39293795
C 0.72309665 6.41279315 1.63452760 -0.00305216 0.00452165 -0.00053011 0.91423834 -0.28353006 1.06002221
C 0.91167570 5.49829805 7.41536781 0.00259321 0.00403032 -0.00217831 1.92351579 -2.11412701 1.10990967
C 0.19895715 9.82209382 5.47438157 0.07389259 -0.01050781 0.01225089 21.17127041 -3.27625479 5.84741324
C 9.23430596 7.04081971 9.40639994 -0.00990356 -0.00001819 -0.01252764 -6.09272768 -4.17725721 -7.66296261
C 1.60106898 5.49267003 3.70953022 -0.00296995 0.00452750 0.00873180 -0.14862873 -0.47480980 1.54217133
C 5.47255895 7.93796771 9.71024907 -0.01800193 0.01150254 -0.02663249 -4.09622067 3.12451858 -12.21106539
C 9.73781659 2.64546099 8.21002890 -0.00959916 -0.01389995 0.00526716 -1.53584041 -5.37891181 1.48208609
C 6.44121125 8.75507057 5.73611437 0.00546228 -0.00520094 -0.00546972 -0.84263551 -1.34848914 1.40720504
C 7.76239155 8.06863716 2.22255376 -0.00022823 0.00080502 -0.00880018 4.79048455 0.05077704 -0.45655423
C 2.00535941 3.12198519 1.70723895 -0.00448097 0.00434519 0.00426588 -0.53124037 -2.26397717 -0.14775825
C 2.96601508 9.39394637 8.73868402 0.00439898 -0.00230574 0.00063262 -0.74474762 1.06981392 0.28335139
C 9.23883572 9.40671954 6.93352430 0.00069194 -0.00121831 0.00058086 1.50301827 -3.15692947 0.54762601
C 6.16830275 5.38849285 3.06560285 0.00573314 0.00004842 -0.00560225 1.52401473 -0.16978350 1.65507969
C 2.22014163 3.46523909 9.24844426 -0.00151400 0.06029637 -0.07010023 1.26584877 13.03670641 -21.21905910
C 9.52363544 1.62073017 9.35129397 -0.00919857 0.00573651 -0.00480420 -4.57777958 3.52647544 -2.84779915
C 1.12679185 1.62558765 5.75512140 0.01126566 -0.00040141 0.00236544 4.95341928 1.58066666 0.51701094
C 1.23685648 1.38558450 3.51072850 0.00110863 0.00425291 0.00638058 3.77236759 3.59307870 0.19004998
C 0.92994933 6.32728063 8.65286876 0.00733999 -0.00120151 -0.01233198 0.96481704 1.78108009 -4.67890352
C 4.69198775 7.71875668 0.78086572 0.00270224 -0.01038140 0.00989516 -2.31087092 -4.44266569 4.11627688
C 9.27791972 6.99366944 4.95318049 0.00583482 -0.00798478 0.00664591 -1.12507997 -5.65268765 2.12195028
C 7.57657369 3.72528753 0.15485376 0.00124476 -0.00727594 0.01417969 -2.95528064 -2.71362054 3.84015823
C 8.79303176 1.60412454 1.19520216 -0.00055005 0.00516040 0.01206860 1.44192751 0.84154265 5.36456918
C 7.40641615 1.31496163 6.25393781 0.00362503 -0.00065285 -0.00628733 -2.35038713 0.16791365 -0.70895556
C 7.50712786 1.58675810 2.03661744 0.00808421 0.00980000 -0.00648505 -0.01707013 2.55391251 0.14105907
C 8.50557413 4.74897066 9.06035456 0.01585244 0.00703182 -0.03672204 4.92506393 4.38927220 -17.79205298
C 5.89756844 1.27887311 8.18037492 0.00036087 -0.00569725 0.00049731 -0.35085737 -1.27330672 -5.15129270
C 7.17426043 2.85561247 4.21342320 -0.00557761 -0.00157811 -0.00390154 -1.60256125 -0.21375904 0.48662614
C 1.41443193 5.49060086 5.14965230 -0.00730013 -0.00216900 0.00157176 -1.24671722 1.07747598 1.07316895
C 5.80443268 8.92171085 2.89566432 0.00409858 -0.00689537 0.00569269 3.01646001 -0.70544481 -0.56526236
C 6.64001751 2.44409865 5.48910045 -0.00722465 -0.00616263 0.00084222 -0.23543128 0.40151695 0.53494125
C 4.40359531 3.84409061 5.38183639 0.00308138 0.00705008 0.00491115 -0.59876639 -0.64373167 -1.51981657
C 6.30040033 5.04394662 1.63097663 0.00175421 -0.00235237 0.01264470 -1.04837903 -0.17910236 4.90997563
C 4.80672384 1.56428490 7.21573172 -0.00253765 -0.00385221 -0.00613340 0.11809952 -0.19498882 -1.09637483
C 2.24002005 2.77586242 0.14476970 0.00518114 -0.05844156 0.07842898 -0.21283234 -12.02355982 25.58739887
C 7.96696566 4.09143863 4.24998191 0.00385796 -0.00377543 0.00720923 0.00049533 1.52093491 1.18984543
C 7.36894027 1.55478449 3.52107178 -0.00592529 0.00298647 -0.00854254 -0.25011769 -0.35310654 -0.67033069
C 7.58668784 5.51904388 3.71266469 0.00403632 -0.00733796 0.00014971 -2.18073159 0.32802416 -0.09694806
C 3.24054601 9.27122942 7.36913239 -0.00714499 -0.00531682 0.00370557 -0.37597133 -0.45346717 -0.60413229
C 7.96819517 6.37384095 7.42991004 0.00598441 0.00168291 0.00682367 1.33005247 -0.38584938 -1.10884960
C 6.25042569 9.45582032 1.56366043 -0.00151553 -0.00023149 -0.00828613 -2.08009583 -2.78216441 -0.26015449
C 7.53975757 5.91598196 1.28723688 -0.00212643 0.00149745 -0.00418708 2.10792658 0.68074840 1.84288385
C 5.36850484 1.67409815 4.87870336 -0.00345516 -0.00397294 0.00094565 2.29062747 0.78972373 1.24380275
C 4.18729967 1.87218907 9.51775135 0.06578431 -0.01156327 -0.04055410 18.29414507 -3.04389829 -16.98200985
C 8.41925969 0.43772630 9.53911423 -0.01531644 0.00180558 0.00461075 -4.47624788 4.53393131 -2.03262643
C 8.78361080 1.27349442 4.16075321 -0.00902559 0.01413485 -0.01212590 -2.27032920 4.79734107 -3.01461247
C 9.48830310 0.15197647 3.31461342 -0.02857446 0.02807333 -0.03598075 -13.55222734 13.08290302 -10.28513288
C 4.91709244 2.65578964 1.86125336 -0.00201498 -0.01119678 0.00334676 3.16522008 -1.57584913 -2.46646808
C 6.73683583 8.56575354 7.32741872 0.00138589 -0.01092641 -0.00534303 0.03898537 -3.24916994 0.18245718
C 4.54291876 6.14129470 6.33303022 -0.00165736 0.00674998 0.00606751 0.24828086 -0.02753802 0.66731176
C 0.81601691 7.41556772 0.59975196 0.08967823 -0.02272086 0.03994385 30.62734529 -8.48489034 16.22678325
C 9.56460455 4.75874100 2.43525640 -0.00846319 -0.00338867 -0.00520085 -4.94283376 -3.90286481 0.69000448
C 0.89451709 3.98066002 1.55177910 -0.00076001 0.00288296 -0.00191616 -1.51606652 -0.89823559 1.63001926
C 8.47133239 5.88347366 2.56572341 0.01001114 0.00223819 0.00460715 0.62357993 0.61260664 -1.22914107
C 3.10858379 1.11306384 1.35074067 0.00226452 0.00108265 -0.00531699 -1.74165797 -1.35229897 3.29046284
C 0.78890932 1.00446224 6.98658629 0.00521913 0.00106179 0.00814338 0.73654451 -2.38967806 0.93044717
C 4.56069182 9.10344774 7.07166912 0.00135548 0.00555826 0.00677823 -3.08698601 0.12312911 -0.81078781
C 5.09779797 0.78407468 6.02713628 0.00694484 0.01198274 0.01056079 1.80795305 3.08238121 1.51914347
C 7.02623310 4.78860352 9.31033051 -0.00755211 0.00621196 -0.01155430 -5.13109061 2.98156223 -3.47952539
C 4.96856569 5.17214486 0.76872063 0.01330623 0.00711777 -0.00499495 4.80879955 0.52432314 1.45592401
C 2.06580051 5.47164241 6.44188164 -0.00127435 -0.00469113 0.00199065 -2.26406336 -0.09083203 0.15991754
C 3.41090639 5.22209322 7.00393260 -0.00442743 0.00218022 -0.00350039 0.50496421 -0.56869802 -0.07161185
C 6.74832968 7.05624005 7.80944210 -0.00295394 -0.00339410 -0.00336685 0.31102491 0.82373451 2.34800897
C 2.98168567 3.69784909 2.64969588 0.00272472 -0.00172699 0.00232636 0.05099160 2.21058109 0.45412790
C 5.18747690 5.57014451 3.95024620 -0.00014784 0.00630120 -0.00473863 0.15571142 -0.81999207 -0.64663757
C 9.31738052 9.18455635 4.11749535 -0.04476521 -0.03631564 0.00675579 -20.34296540 -12.79901841 3.25756439
C 3.75585019 5.24071576 8.47561911 -0.00109602 0.00060988 0.00568656 -0.09428785 0.18149026 -1.23340973
C 2.23611306 7.68464739 0.31176851 -0.00021285 0.00534950 0.01005756 1.26933600 4.93452347 2.60523739
C 0.33615755 0.91048578 0.06098643 0.02180759 -0.00821826 0.00442218 12.88866443 2.54896790 0.74873593
C 4.11469843 9.62247838 4.69242459 0.01877394 -0.00467323 -0.00362834 7.60663758 -4.97803396 0.98489252
C 0.73613002 3.44843611 9.09361664 0.00988927 0.00375175 -0.01641391 2.32888782 3.15644604 -8.99257946
C 7.75871269 6.56908590 4.91638104 -0.00209102 0.00158833 -0.00243685 0.77570489 -1.22134557 1.84280834
C 6.82626336 8.17254894 3.39098207 0.00392882 -0.00831214 0.00131327 0.67382285 -0.40929496 1.46159955
C 9.59749004 9.25034760 9.65679857 0.00324516 0.00912390 -0.00429762 1.10450535 3.61841787 -3.64154816
C 8.24573988 5.07948551 0.22480934 0.00107847 -0.00090540 0.03483018 2.37476418 1.16515392 16.05041086
C 9.05458357 6.03655417 8.40799268 -0.00286737 0.00742197 -0.00309750 -2.83729668 2.15592815 -0.36328968
C 0.99915899 6.51827398 2.96403605 0.00857606 -0.00449581 0.00809234 2.51548784 0.51964544 1.31391258
C 1.84991808 8.64507694 9.09112471 0.00572076 -0.00213685 -0.00268989 1.70806677 -2.71220608 1.23114244
C 6.39333663 2.39620182 1.49061376 -0.00038559 -0.00449112 -0.00495260 -0.48593643 2.33964030 1.98535630
C 9.82649350 7.69217156 0.27778673 -0.07731668 0.02038509 -0.03213550 -24.43542980 5.11069385 -7.50731831
C 3.36106478 8.65425986 2.65744060 -0.01015737 -0.00599029 0.00081362 -1.93127362 -1.85035864 0.35732436
C 8.82888010 1.19325485 5.76790380 -0.01277981 0.01187537 -0.00580564 -8.34639477 5.23447317 -1.99090700
C 3.76411158 3.75500757 6.56843235 0.00490061 -0.00407233 -0.00294105 0.25138041 -0.01802680 0.43106837
C 0.49038306 4.13467619 7.80693196 -0.00122326 0.01573883 -0.01501184 2.11035571 5.16155264 -3.90633524
C 6.91466129 3.75506594 1.39949525 0.00765266 -0.00484911 -0.00393964 0.55177604 -1.37902286 1.23081905
C 6.87150764 3.66108362 6.48142773 -0.00102894 0.00682162 0.00591001 0.12921520 -0.59557590 -0.64575279
C 2.19189029 5.18494768 0.26854915 -0.01137810 -0.00468618 0.05472841 -3.25431405 -2.81229309 27.95457939
C 5.96922926 2.26972410 0.14451719 0.04252644 0.06806164 0.05780915 8.13184401 14.73327170 5.36680818
C 7.33545729 3.15642687 7.86063286 0.00512172 0.00596551 0.00474114 -1.32448487 -1.22103059 -1.05753142
C 1.85888698 6.04919886 9.63569410 -0.03114912 0.03291828 -0.03963925 -11.79280550 12.66631790 -21.27349725
C 0.05983020 5.83836990 5.38319411 -0.00396272 0.01193534 0.00424651 -0.22264168 3.33304190 -0.87007649
C 3.78080037 5.80978555 3.77001739 0.00695138 0.00219591 0.00147642 0.03458917 1.34258508 0.10589757
C 4.52227935 2.79858223 4.39899402 -0.00491960 -0.00342109 0.00667957 0.36244645 0.42483613 0.63435028
C 6.10017369 8.20044320 0.76485126 0.01564419 0.00471762 0.03483300 5.89055280 1.71927595 13.61465411
C 9.32000333 7.87742746 3.87182512 0.00047406 -0.00635014 -0.00090687 0.73959200 -2.82267263 2.06501065
C 7.02907995 7.83234692 4.73748946 0.00182737 0.00602883 -0.00682083 -0.60967881 1.27030920 -0.46731298
C 4.87813541 8.73241116 5.71465253 0.00224690 -0.00562425 0.00650774 0.28066771 -3.17535038 0.60373709
C 0.76791123 1.10547234 9.61025879 0.00541286 -0.01434002 0.00028809 -1.57288797 -6.03978235 4.91295122
C 3.50941385 7.03824700 4.44752538 0.00079115 -0.00777025 -0.00581879 0.57173178 -0.61399811 0.62817923
C 3.44317673 8.23101802 1.34078505 -0.00557994 0.00099541 0.00856164 -2.09640069 2.35847573 1.07640726
C 5.63351329 6.07151786 7.44779862 0.00634917 0.00147297 0.00190417 -0.45226667 -0.36507424 -2.18880712
C 4.54994410 2.80291855 0.45037607 0.01075888 0.00595626 0.00264181 2.72054110 5.46505348 3.98169305
C 1.19947831 7.76946081 3.56032060 0.00674849 0.00021752 0.00329326 5.16615684 -1.58569695 1.34537033
C 3.30406045 2.55492937 8.66022711 -0.00308561 -0.00335048 -0.01809095 1.35253931 2.08541542 -9.11085425
C 6.24862100 5.06016483 6.35415235 -0.00523354 0.00162794 -0.00019931 1.07405785 -0.23051821 1.39501903
C 9.05377369 3.73456612 3.38734720 -0.00074513 -0.00026580 -0.00806090 1.55913045 1.57118205 -0.92138405
C 2.79597675 4.80302844 9.42175640 0.03112869 -0.02934532 -0.04416858 12.48232054 -16.16294036 -18.65869900
C 5.27830417 9.29015955 9.39345883 -0.00790896 0.00801395 -0.00443228 -2.12281180 3.33411431 -5.64213223
C 0.48541507 0.94022215 1.47311651 0.00064199 -0.00520678 -0.00319227 0.33772136 0.60171514 -5.15125618
C 1.77454166 1.66340580 2.09482944 -0.00367192 -0.00416905 -0.00693734 -3.62742091 -2.73085420 -0.43685350