 vasp.5.4.4.18Apr17-6-g9f103f2a35 (build Oct 14 2019 14:20:28) complex          
  
 executed on             LinuxIFC date 2021.05.11  10:58:34
 running on   20 total cores
 distrk:  each k-point on   20 cores,    1 groups
 distr:  one band on NCORES_PER_BAND=   1 cores,   20 groups


--------------------------------------------------------------------------------------------------------


 INCAR:
 POTCAR:    PAW_PBE C 08Apr2002                   

 ----------------------------------------------------------------------------- 
|                                                                             |
|           W    W    AA    RRRRR   N    N  II  N    N   GGGG   !!!           |
|           W    W   A  A   R    R  NN   N  II  NN   N  G    G  !!!           |
|           W    W  A    A  R    R  N N  N  II  N N  N  G       !!!           |
|           W WW W  AAAAAA  RRRRR   N  N N  II  N  N N  G  GGG   !            |
|           WW  WW  A    A  R   R   N   NN  II  N   NN  G    G                |
|           W    W  A    A  R    R  N    N  II  N    N   GGGG   !!!           |
|                                                                             |
|      For optimal performance we recommend to set                            |
|        NCORE= 4 - approx SQRT( number of cores)                             |
|      NCORE specifies how many cores store one orbital (NPAR=cpu/NCORE).     |
|      This setting can  greatly improve the performance of VASP for DFT.     |
|      The default,   NCORE=1            might be grossly inefficient         |
|      on modern multi-core architectures or massively parallel machines.     |
|      Do your own testing !!!!                                               |
|      Unfortunately you need to use the default for GW and RPA calculations. |
|      (for HF NCORE is supported but not extensively tested yet)             |
|                                                                             |
 ----------------------------------------------------------------------------- 

 POTCAR:    PAW_PBE C 08Apr2002                   
   VRHFIN =C: s2p2                                                              
   LEXCH  = PE                                                                  
   EATOM  =   147.1560 eV,   10.8157 Ry                                         
                                                                                
   TITEL  = PAW_PBE C 08Apr2002                                                 
   LULTRA =        F    use ultrasoft PP ?                                      
   IUNSCR =        1    unscreen: 0-lin 1-nonlin 2-no                           
   RPACOR =    1.200    partial core radius                                     
   POMASS =   12.011; ZVAL   =    4.000    mass and valenz                      
   RCORE  =    1.500    outmost cutoff radius                                   
   RWIGS  =    1.630; RWIGS  =    0.863    wigner-seitz radius (au A)           
   ENMAX  =  400.000; ENMIN  =  300.000 eV                                      
   ICORE  =        2    local potential                                         
   LCOR   =        T    correct aug charges                                     
   LPAW   =        T    paw PP                                                  
   EAUG   =  644.873                                                            
   DEXC   =    0.000                                                            
   RMAX   =    1.529    core radius for proj-oper                               
   RAUG   =    1.300    factor for augmentation sphere                          
   RDEP   =    1.501    radius for radial grids                                 
   RDEPT  =    1.300    core radius for aug-charge                              
                                                                                
   Atomic configuration                                                         
    4 entries                                                                   
     n  l   j            E        occ.                                          
     1  0  0.50      -273.3789   2.0000                                         
     2  0  0.50       -13.7508   2.0000                                         
     2  1  0.50        -5.2854   2.0000                                         
     3  2  1.50        -5.4423   0.0000                                         
   Description                                                                  
     l       E           TYP  RCUT    TYP  RCUT                                 
     0    -13.7508458     23  1.200                                             
     0     -8.2022199     23  1.200                                             
     1     -5.2854383     23  1.500                                             
     1     34.0145650     23  1.500                                             
     2     -5.4423304      7  1.500                                             
  local pseudopotential read in
  partial core-charges read in
  partial kinetic energy density read in
  atomic valenz-charges read in
  non local Contribution for L=           0  read in
    real space projection operators read in
  non local Contribution for L=           0  read in
    real space projection operators read in
  non local Contribution for L=           1  read in
    real space projection operators read in
  non local Contribution for L=           1  read in
    real space projection operators read in
    PAW grid and wavefunctions read in
 
   number of l-projection  operators is LMAX  =           4
   number of lm-projection operators is LMMAX =           8
 
  PAW_PBE C 08Apr2002                   :
 energy of atom  1       EATOM= -147.1560
 kinetic energy error for atom=    0.0045 (will be added to EATOM!!)
 
 
 POSCAR: diamond                                 
  positions in direct lattice
  No initial velocities read in
 exchange correlation table for  LEXCH =        8
   RHO(1)=    0.500       N(1)  =     2000
   RHO(2)=  100.500       N(2)  =     4000
 


--------------------------------------------------------------------------------------------------------


 ion  position               nearest neighbor table
   1  0.000  0.000  0.000-   5 1.54   7 1.54   8 1.54   6 1.54
   2  0.000  0.500  0.500-   6 1.54   5 1.54   8 1.54   7 1.54
   3  0.500  0.500  0.000-   6 1.54   5 1.54   7 1.54   8 1.54
   4  0.500  0.000  0.500-   6 1.54   7 1.54   8 1.54   5 1.54
   5  0.750  0.250  0.750-   1 1.54   2 1.54   3 1.54   4 1.54
   6  0.250  0.250  0.250-   1 1.54   2 1.54   3 1.54   4 1.54
   7  0.250  0.750  0.750-   1 1.54   3 1.54   4 1.54   2 1.54
   8  0.750  0.750  0.250-   1 1.54   2 1.54   4 1.54   3 1.54
 
  LATTYP: Found a simple cubic cell.
 ALAT       =     3.5559999943
  
  Lattice vectors:
  
 A1 = (   3.5559999943,   0.0000000000,   0.0000000000)
 A2 = (   0.0000000000,   3.5559999943,   0.0000000000)
 A3 = (   0.0000000000,   0.0000000000,   3.5559999943)


Analysis of symmetry for initial positions (statically):
=====================================================================
 Subroutine PRICEL returns following result:
 
  LATTYP: Found a face centered cubic cell.
 ALAT       =     3.5559999943
  
  Lattice vectors:
  
 A1 = (   1.7779999972,   1.7779999972,   0.0000000000)
 A2 = (   1.7779999972,   0.0000000000,  -1.7779999971)
 A3 = (   0.0000000000,   1.7779999972,  -1.7779999971)
 
   4 primitive cells build up your supercell.
 

 Routine SETGRP: Setting up the symmetry group for a 
 simple cubic supercell.


 Subroutine GETGRP returns: Found 48 space group operations
 (whereof 24 operations were pure point group operations)
 out of a pool of 48 trial point group operations.


The static configuration has the point symmetry T_d .
 The point group associated with its full space group is O_h .


Analysis of symmetry for dynamics (positions and initial velocities):
=====================================================================
 Subroutine PRICEL returns following result:
 
  LATTYP: Found a face centered cubic cell.
 ALAT       =     3.5559999943
  
  Lattice vectors:
  
 A1 = (   1.7779999972,   1.7779999972,   0.0000000000)
 A2 = (   1.7779999972,   0.0000000000,  -1.7779999971)
 A3 = (   0.0000000000,   1.7779999972,  -1.7779999971)
 
   4 primitive cells build up your supercell.
 

 Routine SETGRP: Setting up the symmetry group for a 
 simple cubic supercell.


 Subroutine GETGRP returns: Found 48 space group operations
 (whereof 24 operations were pure point group operations)
 out of a pool of 48 trial point group operations.


The dynamic configuration has the point symmetry T_d .
 The point group associated with its full space group is O_h .


 Subroutine INISYM returns: Found 48 space group operations
 (whereof 24 operations are pure point group operations),
 and found     4 'primitive' translations

 
 
 KPOINTS: Generate k-mesh automatically           

Automatic generation of k-mesh.
Space group operators:
 irot       det(A)        alpha          n_x          n_y          n_z        tau_x        tau_y        tau_z
    1     1.000000     0.000000     1.000000     0.000000     0.000000     0.000000     0.000000     0.000000
    2     1.000000   120.000000    -0.577350    -0.577350    -0.577350     0.000000     0.000000     0.000000
    3     1.000000   120.000000     0.577350     0.577350     0.577350     0.000000     0.000000     0.000000
    4    -1.000000    90.000000     0.000000     0.000000    -1.000000     0.000000     0.000000     0.000000
    5    -1.000000   180.000000     0.000000     0.707107     0.707107     0.000000     0.000000     0.000000
    6    -1.000000    90.000000     0.000000     1.000000     0.000000     0.000000     0.000000     0.000000
    7     1.000000   180.000000     0.000000     0.000000     1.000000     0.000000     0.000000     0.000000
    8     1.000000   120.000000    -0.577350     0.577350     0.577350     0.000000     0.000000     0.000000
    9     1.000000   120.000000    -0.577350     0.577350    -0.577350     0.000000     0.000000     0.000000
   10    -1.000000    90.000000     0.000000     0.000000     1.000000     0.000000     0.000000     0.000000
   11    -1.000000    90.000000    -1.000000     0.000000     0.000000     0.000000     0.000000     0.000000
   12    -1.000000   180.000000     0.707107     0.000000     0.707107     0.000000     0.000000     0.000000
   13     1.000000   120.000000     0.577350    -0.577350     0.577350     0.000000     0.000000     0.000000
   14     1.000000   120.000000    -0.577350    -0.577350     0.577350     0.000000     0.000000     0.000000
   15     1.000000   180.000000     1.000000     0.000000     0.000000     0.000000     0.000000     0.000000
   16    -1.000000    90.000000     0.000000    -1.000000     0.000000     0.000000     0.000000     0.000000
   17    -1.000000   180.000000     0.707107     0.707107     0.000000     0.000000     0.000000     0.000000
   18    -1.000000    90.000000     1.000000     0.000000     0.000000     0.000000     0.000000     0.000000
   19     1.000000   120.000000     0.577350    -0.577350    -0.577350     0.000000     0.000000     0.000000
   20     1.000000   180.000000     0.000000     1.000000     0.000000     0.000000     0.000000     0.000000
   21     1.000000   120.000000     0.577350     0.577350    -0.577350     0.000000     0.000000     0.000000
   22    -1.000000   180.000000     0.000000    -0.707107     0.707107     0.000000     0.000000     0.000000
   23    -1.000000   180.000000     0.707107    -0.707107     0.000000     0.000000     0.000000     0.000000
   24    -1.000000   180.000000     0.707107     0.000000    -0.707107     0.000000     0.000000     0.000000
   25    -1.000000     0.000000     1.000000     0.000000     0.000000     0.750000     0.750000    -0.750000
   26    -1.000000   120.000000    -0.577350    -0.577350    -0.577350     0.750000     0.750000    -0.750000
   27    -1.000000   120.000000     0.577350     0.577350     0.577350     0.750000     0.750000    -0.750000
   28     1.000000    90.000000     0.000000     0.000000    -1.000000     0.750000     0.750000    -0.750000
   29     1.000000   180.000000     0.000000     0.707107     0.707107     0.750000     0.750000    -0.750000
   30     1.000000    90.000000     0.000000     1.000000     0.000000     0.750000     0.750000    -0.750000
   31    -1.000000   180.000000     0.000000     0.000000     1.000000     0.750000     0.750000    -0.750000
   32    -1.000000   120.000000    -0.577350     0.577350     0.577350     0.750000     0.750000    -0.750000
   33    -1.000000   120.000000    -0.577350     0.577350    -0.577350     0.750000     0.750000    -0.750000
   34     1.000000    90.000000     0.000000     0.000000     1.000000     0.750000     0.750000    -0.750000
   35     1.000000    90.000000    -1.000000     0.000000     0.000000     0.750000     0.750000    -0.750000
   36     1.000000   180.000000     0.707107     0.000000     0.707107     0.750000     0.750000    -0.750000
   37    -1.000000   120.000000     0.577350    -0.577350     0.577350     0.750000     0.750000    -0.750000
   38    -1.000000   120.000000    -0.577350    -0.577350     0.577350     0.750000     0.750000    -0.750000
   39    -1.000000   180.000000     1.000000     0.000000     0.000000     0.750000     0.750000    -0.750000
   40     1.000000    90.000000     0.000000    -1.000000     0.000000     0.750000     0.750000    -0.750000
   41     1.000000   180.000000     0.707107     0.707107     0.000000     0.750000     0.750000    -0.750000
   42     1.000000    90.000000     1.000000     0.000000     0.000000     0.750000     0.750000    -0.750000
   43    -1.000000   120.000000     0.577350    -0.577350    -0.577350     0.750000     0.750000    -0.750000
   44    -1.000000   180.000000     0.000000     1.000000     0.000000     0.750000     0.750000    -0.750000
   45    -1.000000   120.000000     0.577350     0.577350    -0.577350     0.750000     0.750000    -0.750000
   46     1.000000   180.000000     0.000000    -0.707107     0.707107     0.750000     0.750000    -0.750000
   47     1.000000   180.000000     0.707107    -0.707107     0.000000     0.750000     0.750000    -0.750000
   48     1.000000   180.000000     0.707107     0.000000    -0.707107     0.750000     0.750000    -0.750000
 
 Subroutine IBZKPT returns following result:
 ===========================================
 
 Found    120 irreducible k-points:
 
 Following reciprocal coordinates:
            Coordinates               Weight
  0.000000  0.000000  0.000000      1.000000
  0.066667  0.000000  0.000000      6.000000
  0.133333  0.000000  0.000000      6.000000
  0.200000  0.000000  0.000000      6.000000
  0.266667  0.000000  0.000000      6.000000
  0.333333  0.000000  0.000000      6.000000
  0.400000  0.000000  0.000000      6.000000
  0.466667  0.000000  0.000000      6.000000
  0.066667  0.066667  0.000000     12.000000
  0.133333  0.066667  0.000000     24.000000
  0.200000  0.066667  0.000000     24.000000
  0.266667  0.066667  0.000000     24.000000
  0.333333  0.066667  0.000000     24.000000
  0.400000  0.066667  0.000000     24.000000
  0.466667  0.066667  0.000000     24.000000
  0.133333  0.133333  0.000000     12.000000
  0.200000  0.133333  0.000000     24.000000
  0.266667  0.133333  0.000000     24.000000
  0.333333  0.133333  0.000000     24.000000
  0.400000  0.133333  0.000000     24.000000
  0.466667  0.133333  0.000000     24.000000
  0.200000  0.200000  0.000000     12.000000
  0.266667  0.200000  0.000000     24.000000
  0.333333  0.200000  0.000000     24.000000
  0.400000  0.200000  0.000000     24.000000
  0.466667  0.200000  0.000000     24.000000
  0.266667  0.266667  0.000000     12.000000
  0.333333  0.266667  0.000000     24.000000
  0.400000  0.266667  0.000000     24.000000
  0.466667  0.266667  0.000000     24.000000
  0.333333  0.333333  0.000000     12.000000
  0.400000  0.333333  0.000000     24.000000
  0.466667  0.333333  0.000000     24.000000
  0.400000  0.400000  0.000000     12.000000
  0.466667  0.400000  0.000000     24.000000
  0.466667  0.466667  0.000000     12.000000
  0.066667  0.066667  0.066667      8.000000
  0.133333  0.066667  0.066667     24.000000
  0.200000  0.066667  0.066667     24.000000
  0.266667  0.066667  0.066667     24.000000
  0.333333  0.066667  0.066667     24.000000
  0.400000  0.066667  0.066667     24.000000
  0.466667  0.066667  0.066667     24.000000
  0.133333  0.133333  0.066667     24.000000
  0.200000  0.133333  0.066667     48.000000
  0.266667  0.133333  0.066667     48.000000
  0.333333  0.133333  0.066667     48.000000
  0.400000  0.133333  0.066667     48.000000
  0.466667  0.133333  0.066667     48.000000
  0.200000  0.200000  0.066667     24.000000
  0.266667  0.200000  0.066667     48.000000
  0.333333  0.200000  0.066667     48.000000
  0.400000  0.200000  0.066667     48.000000
  0.466667  0.200000  0.066667     48.000000
  0.266667  0.266667  0.066667     24.000000
  0.333333  0.266667  0.066667     48.000000
  0.400000  0.266667  0.066667     48.000000
  0.466667  0.266667  0.066667     48.000000
  0.333333  0.333333  0.066667     24.000000
  0.400000  0.333333  0.066667     48.000000
  0.466667  0.333333  0.066667     48.000000
  0.400000  0.400000  0.066667     24.000000
  0.466667  0.400000  0.066667     48.000000
  0.466667  0.466667  0.066667     24.000000
  0.133333  0.133333  0.133333      8.000000
  0.200000  0.133333  0.133333     24.000000
  0.266667  0.133333  0.133333     24.000000
  0.333333  0.133333  0.133333     24.000000
  0.400000  0.133333  0.133333     24.000000
  0.466667  0.133333  0.133333     24.000000
  0.200000  0.200000  0.133333     24.000000
  0.266667  0.200000  0.133333     48.000000
  0.333333  0.200000  0.133333     48.000000
  0.400000  0.200000  0.133333     48.000000
  0.466667  0.200000  0.133333     48.000000
  0.266667  0.266667  0.133333     24.000000
  0.333333  0.266667  0.133333     48.000000
  0.400000  0.266667  0.133333     48.000000
  0.466667  0.266667  0.133333     48.000000
  0.333333  0.333333  0.133333     24.000000
  0.400000  0.333333  0.133333     48.000000
  0.466667  0.333333  0.133333     48.000000
  0.400000  0.400000  0.133333     24.000000
  0.466667  0.400000  0.133333     48.000000
  0.466667  0.466667  0.133333     24.000000
  0.200000  0.200000  0.200000      8.000000
  0.266667  0.200000  0.200000     24.000000
  0.333333  0.200000  0.200000     24.000000
  0.400000  0.200000  0.200000     24.000000
  0.466667  0.200000  0.200000     24.000000
  0.266667  0.266667  0.200000     24.000000
  0.333333  0.266667  0.200000     48.000000
  0.400000  0.266667  0.200000     48.000000
  0.466667  0.266667  0.200000     48.000000
  0.333333  0.333333  0.200000     24.000000
  0.400000  0.333333  0.200000     48.000000
  0.466667  0.333333  0.200000     48.000000
  0.400000  0.400000  0.200000     24.000000
  0.466667  0.400000  0.200000     48.000000
  0.466667  0.466667  0.200000     24.000000
  0.266667  0.266667  0.266667      8.000000
  0.333333  0.266667  0.266667     24.000000
  0.400000  0.266667  0.266667     24.000000
  0.466667  0.266667  0.266667     24.000000
  0.333333  0.333333  0.266667     24.000000
  0.400000  0.333333  0.266667     48.000000
  0.466667  0.333333  0.266667     48.000000
  0.400000  0.400000  0.266667     24.000000
  0.466667  0.400000  0.266667     48.000000
  0.466667  0.466667  0.266667     24.000000
  0.333333  0.333333  0.333333      8.000000
  0.400000  0.333333  0.333333     24.000000
  0.466667  0.333333  0.333333     24.000000
  0.400000  0.400000  0.333333     24.000000
  0.466667  0.400000  0.333333     48.000000
  0.466667  0.466667  0.333333     24.000000
  0.400000  0.400000  0.400000      8.000000
  0.466667  0.400000  0.400000     24.000000
  0.466667  0.466667  0.400000     24.000000
  0.466667  0.466667  0.466667      8.000000
 
 Following cartesian coordinates:
            Coordinates               Weight
  0.000000  0.000000  0.000000      1.000000
  0.018748  0.000000  0.000000      6.000000
  0.037495  0.000000  0.000000      6.000000
  0.056243  0.000000  0.000000      6.000000
  0.074991  0.000000  0.000000      6.000000
  0.093738  0.000000  0.000000      6.000000
  0.112486  0.000000  0.000000      6.000000
  0.131234  0.000000  0.000000      6.000000
  0.018748  0.018748  0.000000     12.000000
  0.037495  0.018748  0.000000     24.000000
  0.056243  0.018748  0.000000     24.000000
  0.074991  0.018748  0.000000     24.000000
  0.093738  0.018748  0.000000     24.000000
  0.112486  0.018748  0.000000     24.000000
  0.131234  0.018748  0.000000     24.000000
  0.037495  0.037495  0.000000     12.000000
  0.056243  0.037495  0.000000     24.000000
  0.074991  0.037495  0.000000     24.000000
  0.093738  0.037495  0.000000     24.000000
  0.112486  0.037495  0.000000     24.000000
  0.131234  0.037495  0.000000     24.000000
  0.056243  0.056243  0.000000     12.000000
  0.074991  0.056243  0.000000     24.000000
  0.093738  0.056243  0.000000     24.000000
  0.112486  0.056243  0.000000     24.000000
  0.131234  0.056243  0.000000     24.000000
  0.074991  0.074991  0.000000     12.000000
  0.093738  0.074991  0.000000     24.000000
  0.112486  0.074991  0.000000     24.000000
  0.131234  0.074991  0.000000     24.000000
  0.093738  0.093738  0.000000     12.000000
  0.112486  0.093738  0.000000     24.000000
  0.131234  0.093738  0.000000     24.000000
  0.112486  0.112486  0.000000     12.000000
  0.131234  0.112486  0.000000     24.000000
  0.131234  0.131234  0.000000     12.000000
  0.018748  0.018748  0.018748      8.000000
  0.037495  0.018748  0.018748     24.000000
  0.056243  0.018748  0.018748     24.000000
  0.074991  0.018748  0.018748     24.000000
  0.093738  0.018748  0.018748     24.000000
  0.112486  0.018748  0.018748     24.000000
  0.131234  0.018748  0.018748     24.000000
  0.037495  0.037495  0.018748     24.000000
  0.056243  0.037495  0.018748     48.000000
  0.074991  0.037495  0.018748     48.000000
  0.093738  0.037495  0.018748     48.000000
  0.112486  0.037495  0.018748     48.000000
  0.131234  0.037495  0.018748     48.000000
  0.056243  0.056243  0.018748     24.000000
  0.074991  0.056243  0.018748     48.000000
  0.093738  0.056243  0.018748     48.000000
  0.112486  0.056243  0.018748     48.000000
  0.131234  0.056243  0.018748     48.000000
  0.074991  0.074991  0.018748     24.000000
  0.093738  0.074991  0.018748     48.000000
  0.112486  0.074991  0.018748     48.000000
  0.131234  0.074991  0.018748     48.000000
  0.093738  0.093738  0.018748     24.000000
  0.112486  0.093738  0.018748     48.000000
  0.131234  0.093738  0.018748     48.000000
  0.112486  0.112486  0.018748     24.000000
  0.131234  0.112486  0.018748     48.000000
  0.131234  0.131234  0.018748     24.000000
  0.037495  0.037495  0.037495      8.000000
  0.056243  0.037495  0.037495     24.000000
  0.074991  0.037495  0.037495     24.000000
  0.093738  0.037495  0.037495     24.000000
  0.112486  0.037495  0.037495     24.000000
  0.131234  0.037495  0.037495     24.000000
  0.056243  0.056243  0.037495     24.000000
  0.074991  0.056243  0.037495     48.000000
  0.093738  0.056243  0.037495     48.000000
  0.112486  0.056243  0.037495     48.000000
  0.131234  0.056243  0.037495     48.000000
  0.074991  0.074991  0.037495     24.000000
  0.093738  0.074991  0.037495     48.000000
  0.112486  0.074991  0.037495     48.000000
  0.131234  0.074991  0.037495     48.000000
  0.093738  0.093738  0.037495     24.000000
  0.112486  0.093738  0.037495     48.000000
  0.131234  0.093738  0.037495     48.000000
  0.112486  0.112486  0.037495     24.000000
  0.131234  0.112486  0.037495     48.000000
  0.131234  0.131234  0.037495     24.000000
  0.056243  0.056243  0.056243      8.000000
  0.074991  0.056243  0.056243     24.000000
  0.093738  0.056243  0.056243     24.000000
  0.112486  0.056243  0.056243     24.000000
  0.131234  0.056243  0.056243     24.000000
  0.074991  0.074991  0.056243     24.000000
  0.093738  0.074991  0.056243     48.000000
  0.112486  0.074991  0.056243     48.000000
  0.131234  0.074991  0.056243     48.000000
  0.093738  0.093738  0.056243     24.000000
  0.112486  0.093738  0.056243     48.000000
  0.131234  0.093738  0.056243     48.000000
  0.112486  0.112486  0.056243     24.000000
  0.131234  0.112486  0.056243     48.000000
  0.131234  0.131234  0.056243     24.000000
  0.074991  0.074991  0.074991      8.000000
  0.093738  0.074991  0.074991     24.000000
  0.112486  0.074991  0.074991     24.000000
  0.131234  0.074991  0.074991     24.000000
  0.093738  0.093738  0.074991     24.000000
  0.112486  0.093738  0.074991     48.000000
  0.131234  0.093738  0.074991     48.000000
  0.112486  0.112486  0.074991     24.000000
  0.131234  0.112486  0.074991     48.000000
  0.131234  0.131234  0.074991     24.000000
  0.093738  0.093738  0.093738      8.000000
  0.112486  0.093738  0.093738     24.000000
  0.131234  0.093738  0.093738     24.000000
  0.112486  0.112486  0.093738     24.000000
  0.131234  0.112486  0.093738     48.000000
  0.131234  0.131234  0.093738     24.000000
  0.112486  0.112486  0.112486      8.000000
  0.131234  0.112486  0.112486     24.000000
  0.131234  0.131234  0.112486     24.000000
  0.131234  0.131234  0.131234      8.000000
 
 TETIRR: Found   1667 inequivalent tetrahedra from    20250


--------------------------------------------------------------------------------------------------------




 Dimension of arrays:
   k-points           NKPTS =    120   k-points in BZ     NKDIM =    120   number of bands    NBANDS=     40
   number of dos      NEDOS =    301   number of ions     NIONS =      8
   non local maximal  LDIM  =      4   non local SUM 2l+1 LMDIM =      8
   total plane-waves  NPLWV =  27000
   max r-space proj   IRMAX =      1   max aug-charges    IRDMAX=   7285
   dimension x,y,z NGX =    30 NGY =   30 NGZ =   30
   dimension x,y,z NGXF=    60 NGYF=   60 NGZF=   60
   support grid    NGXF=    60 NGYF=   60 NGZF=   60
   ions per type =               8
   NGX,Y,Z   is equivalent  to a cutoff of  14.03, 14.03, 14.03 a.u.
   NGXF,Y,Z  is equivalent  to a cutoff of  28.05, 28.05, 28.05 a.u.

 SYSTEM =  Si                                      
 POSCAR =  diamond                                 

 Startparameter for this run:
   NWRITE =      2    write-flag & timer
   PREC   = accura    normal or accurate (medium, high low for compatibility)
   ISTART =      0    job   : 0-new  1-cont  2-samecut
   ICHARG =      2    charge: 1-file 2-atom 10-const
   ISPIN  =      1    spin polarized calculation?
   LNONCOLLINEAR =      F non collinear calculations
   LSORBIT =      F    spin-orbit coupling
   INIWAV =      1    electr: 0-lowe 1-rand  2-diag
   LASPH  =      F    aspherical Exc in radial PAW
   METAGGA=      F    non-selfconsistent MetaGGA calc.

 Electronic Relaxation 1
   ENCUT  =  650.0 eV  47.77 Ry    6.91 a.u.   7.39  7.39  7.39*2*pi/ulx,y,z
   ENINI  =  650.0     initial cutoff
   ENAUG  =  644.9 eV  augmentation charge cutoff
   NELM   =     60;   NELMIN=  2; NELMDL= -5     # of ELM steps 
   EDIFF  = 0.1E-05   stopping-criterion for ELM
   LREAL  =      F    real-space projection
   NLSPLINE    = F    spline interpolate recip. space projectors
   LCOMPAT=      F    compatible to vasp.4.4
   GGA_COMPAT  = T    GGA compatible to vasp.4.4-vasp.4.6
   LMAXPAW     = -100 max onsite density
   LMAXMIX     =    2 max onsite mixed and CHGCAR
   VOSKOWN=      0    Vosko Wilk Nusair interpolation
   ROPT   =    0.00000
 Ionic relaxation
   EDIFFG = -.1E-04   stopping-criterion for IOM
   NSW    =   5000    number of steps for IOM
   NBLOCK =      1;   KBLOCK =   5000    inner block; outer block 
   IBRION =      2    ionic relax: 0-MD 1-quasi-New 2-CG
   NFREE  =      1    steps in history (QN), initial steepest desc. (CG)
   ISIF   =      3    stress and relaxation
   IWAVPR =     11    prediction:  0-non 1-charg 2-wave 3-comb
   ISYM   =      2    0-nonsym 1-usesym 2-fastsym
   LCORR  =      T    Harris-Foulkes like correction to forces

   POTIM  = 0.5000    time-step for ionic-motion
   TEIN   =    0.0    initial temperature
   TEBEG  =    0.0;   TEEND  =   0.0 temperature during run
   SMASS  =  -3.00    Nose mass-parameter (am)
   estimated Nose-frequenzy (Omega)   =  0.10E-29 period in steps =****** mass=  -0.289E-27a.u.
   SCALEE = 1.0000    scale energy and forces
   NPACO  =    256;   APACO  = 16.0  distance and # of slots for P.C.
   PSTRESS=    0.0 pullay stress

  Mass of Ions in am
   POMASS =  12.01
  Ionic Valenz
   ZVAL   =   4.00
  Atomic Wigner-Seitz radii
   RWIGS  =  -1.00
  virtual crystal weights 
   VCA    =   1.00
   NELECT =      32.0000    total number of electrons
   NUPDOWN=      -1.0000    fix difference up-down

 DOS related values:
   EMIN   =  10.00;   EMAX   =-10.00  energy-range for DOS
   EFERMI =   0.00
   ISMEAR =    -5;   SIGMA  =   0.20  broadening in eV -4-tet -1-fermi 0-gaus

 Electronic relaxation 2 (details)
   IALGO  =     38    algorithm
   LDIAG  =      T    sub-space diagonalisation (order eigenvalues)
   LSUBROT=      F    optimize rotation matrix (better conditioning)
   TURBO    =      0    0=normal 1=particle mesh
   IRESTART =      0    0=no restart 2=restart with 2 vectors
   NREBOOT  =      0    no. of reboots
   NMIN     =      0    reboot dimension
   EREF     =   0.00    reference energy to select bands
   IMIX   =      4    mixing-type and parameters
     AMIX     =   0.40;   BMIX     =  1.00
     AMIX_MAG =   1.60;   BMIX_MAG =  1.00
     AMIN     =   0.10
     WC   =   100.;   INIMIX=   1;  MIXPRE=   1;  MAXMIX= -45

 Intra band minimization:
   WEIMIN = 0.0010     energy-eigenvalue tresh-hold
   EBREAK =  0.62E-08  absolut break condition
   DEPER  =   0.30     relativ break condition  

   TIME   =   0.40     timestep for ELM

  volume/ion in A,a.u.               =       5.62        37.93
  Fermi-wavevector in a.u.,A,eV,Ry     =   1.461604  2.762031 29.065941  2.136286
  Thomas-Fermi vector in A             =   2.577916
 
 Write flags
   LWAVE        =      F    write WAVECAR
   LDOWNSAMPLE  =      F    k-point downsampling of WAVECAR
   LCHARG       =      F    write CHGCAR
   LVTOT        =      F    write LOCPOT, total local potential
   LVHAR        =      F    write LOCPOT, Hartree potential only
   LELF         =      F    write electronic localiz. function (ELF)
   LORBIT       =      0    0 simple, 1 ext, 2 COOP (PROOUT), +10 PAW based schemes


 Dipole corrections
   LMONO  =      F    monopole corrections only (constant potential shift)
   LDIPOL =      F    correct potential (dipole corrections)
   IDIPOL =      0    1-x, 2-y, 3-z, 4-all directions 
   EPSILON=  1.0000000 bulk dielectric constant

 Exchange correlation treatment:
   GGA     =    --    GGA type
   LEXCH   =     8    internal setting for exchange type
   VOSKOWN=      0    Vosko Wilk Nusair interpolation
   LHFCALC =     F    Hartree Fock is set to
   LHFONE  =     F    Hartree Fock one center treatment
   AEXX    =    0.0000 exact exchange contribution

 Linear response parameters
   LEPSILON=     F    determine dielectric tensor
   LRPA    =     F    only Hartree local field effects (RPA)
   LNABLA  =     F    use nabla operator in PAW spheres
   LVEL    =     F    velocity operator in full k-point grid
   LINTERFAST=   F  fast interpolation
   KINTER  =     0    interpolate to denser k-point grid
   CSHIFT  =0.1000    complex shift for real part using Kramers Kronig
   OMEGAMAX=  -1.0    maximum frequency
   DEG_THRESHOLD= 0.2000000E-02 threshold for treating states as degnerate
   RTIME   =   -0.100 relaxation time in fs
  (WPLASMAI=    0.000 imaginary part of plasma frequency in eV, 0.658/RTIME)
   DFIELD  = 0.0000000 0.0000000 0.0000000 field for delta impulse in time
 
 Orbital magnetization related:
   ORBITALMAG=     F  switch on orbital magnetization
   LCHIMAG   =     F  perturbation theory with respect to B field
   DQ        =  0.001000  dq finite difference perturbation B field
   LLRAUG    =     F  two centre corrections for induced B field



--------------------------------------------------------------------------------------------------------


 conjugate gradient relaxation of ions
 charge density and potential will be updated during run
 non-spin polarized calculation
 Variant of blocked Davidson
 Davidson routine will perform the subspace rotation
 perform sub-space diagonalisation
    after iterative eigenvector-optimisation
 modified Broyden-mixing scheme, WC =      100.0
 initial mixing is a Kerker type mixing with AMIX =  0.4000 and BMIX =      1.0000
 Hartree-type preconditioning will be used
 using additional bands           24
 reciprocal scheme for non local part
 use partial core corrections
 calculate Harris-corrections to forces 
   (improved forces if not selfconsistent)
 use gradient corrections 
 use of overlap-Matrix (Vanderbilt PP)
 Fermi weights with tetrahedron method with Bloechl corrections


--------------------------------------------------------------------------------------------------------


  energy-cutoff  :      650.00
  volume of cell :       44.97
      direct lattice vectors                 reciprocal lattice vectors
     3.555999994  0.000000000  0.000000000     0.281214849  0.000000000  0.000000000
     0.000000000  3.555999994  0.000000000     0.000000000  0.281214849  0.000000000
     0.000000000  0.000000000  3.555999994     0.000000000  0.000000000  0.281214849

  length of vectors
     3.555999994  3.555999994  3.555999994     0.281214849  0.281214849  0.281214849


 
 k-points in units of 2pi/SCALE and weight: Generate k-mesh automatically           
   0.00000000  0.00000000  0.00000000       0.000
   0.01874766  0.00000000  0.00000000       0.002
   0.03749531  0.00000000  0.00000000       0.002
   0.05624297  0.00000000  0.00000000       0.002
   0.07499063  0.00000000  0.00000000       0.002
   0.09373828  0.00000000  0.00000000       0.002
   0.11248594  0.00000000  0.00000000       0.002
   0.13123360  0.00000000  0.00000000       0.002
   0.01874766  0.01874766  0.00000000       0.004
   0.03749531  0.01874766  0.00000000       0.007
   0.05624297  0.01874766  0.00000000       0.007
   0.07499063  0.01874766  0.00000000       0.007
   0.09373828  0.01874766  0.00000000       0.007
   0.11248594  0.01874766  0.00000000       0.007
   0.13123360  0.01874766  0.00000000       0.007
   0.03749531  0.03749531  0.00000000       0.004
   0.05624297  0.03749531  0.00000000       0.007
   0.07499063  0.03749531  0.00000000       0.007
   0.09373828  0.03749531  0.00000000       0.007
   0.11248594  0.03749531  0.00000000       0.007
   0.13123360  0.03749531  0.00000000       0.007
   0.05624297  0.05624297  0.00000000       0.004
   0.07499063  0.05624297  0.00000000       0.007
   0.09373828  0.05624297  0.00000000       0.007
   0.11248594  0.05624297  0.00000000       0.007
   0.13123360  0.05624297  0.00000000       0.007
   0.07499063  0.07499063  0.00000000       0.004
   0.09373828  0.07499063  0.00000000       0.007
   0.11248594  0.07499063  0.00000000       0.007
   0.13123360  0.07499063  0.00000000       0.007
   0.09373828  0.09373828  0.00000000       0.004
   0.11248594  0.09373828  0.00000000       0.007
   0.13123360  0.09373828  0.00000000       0.007
   0.11248594  0.11248594  0.00000000       0.004
   0.13123360  0.11248594  0.00000000       0.007
   0.13123360  0.13123360  0.00000000       0.004
   0.01874766  0.01874766  0.01874766       0.002
   0.03749531  0.01874766  0.01874766       0.007
   0.05624297  0.01874766  0.01874766       0.007
   0.07499063  0.01874766  0.01874766       0.007
   0.09373828  0.01874766  0.01874766       0.007
   0.11248594  0.01874766  0.01874766       0.007
   0.13123360  0.01874766  0.01874766       0.007
   0.03749531  0.03749531  0.01874766       0.007
   0.05624297  0.03749531  0.01874766       0.014
   0.07499063  0.03749531  0.01874766       0.014
   0.09373828  0.03749531  0.01874766       0.014
   0.11248594  0.03749531  0.01874766       0.014
   0.13123360  0.03749531  0.01874766       0.014
   0.05624297  0.05624297  0.01874766       0.007
   0.07499063  0.05624297  0.01874766       0.014
   0.09373828  0.05624297  0.01874766       0.014
   0.11248594  0.05624297  0.01874766       0.014
   0.13123360  0.05624297  0.01874766       0.014
   0.07499063  0.07499063  0.01874766       0.007
   0.09373828  0.07499063  0.01874766       0.014
   0.11248594  0.07499063  0.01874766       0.014
   0.13123360  0.07499063  0.01874766       0.014
   0.09373828  0.09373828  0.01874766       0.007
   0.11248594  0.09373828  0.01874766       0.014
   0.13123360  0.09373828  0.01874766       0.014
   0.11248594  0.11248594  0.01874766       0.007
   0.13123360  0.11248594  0.01874766       0.014
   0.13123360  0.13123360  0.01874766       0.007
   0.03749531  0.03749531  0.03749531       0.002
   0.05624297  0.03749531  0.03749531       0.007
   0.07499063  0.03749531  0.03749531       0.007
   0.09373828  0.03749531  0.03749531       0.007
   0.11248594  0.03749531  0.03749531       0.007
   0.13123360  0.03749531  0.03749531       0.007
   0.05624297  0.05624297  0.03749531       0.007
   0.07499063  0.05624297  0.03749531       0.014
   0.09373828  0.05624297  0.03749531       0.014
   0.11248594  0.05624297  0.03749531       0.014
   0.13123360  0.05624297  0.03749531       0.014
   0.07499063  0.07499063  0.03749531       0.007
   0.09373828  0.07499063  0.03749531       0.014
   0.11248594  0.07499063  0.03749531       0.014
   0.13123360  0.07499063  0.03749531       0.014
   0.09373828  0.09373828  0.03749531       0.007
   0.11248594  0.09373828  0.03749531       0.014
   0.13123360  0.09373828  0.03749531       0.014
   0.11248594  0.11248594  0.03749531       0.007
   0.13123360  0.11248594  0.03749531       0.014
   0.13123360  0.13123360  0.03749531       0.007
   0.05624297  0.05624297  0.05624297       0.002
   0.07499063  0.05624297  0.05624297       0.007
   0.09373828  0.05624297  0.05624297       0.007
   0.11248594  0.05624297  0.05624297       0.007
   0.13123360  0.05624297  0.05624297       0.007
   0.07499063  0.07499063  0.05624297       0.007
   0.09373828  0.07499063  0.05624297       0.014
   0.11248594  0.07499063  0.05624297       0.014
   0.13123360  0.07499063  0.05624297       0.014
   0.09373828  0.09373828  0.05624297       0.007
   0.11248594  0.09373828  0.05624297       0.014
   0.13123360  0.09373828  0.05624297       0.014
   0.11248594  0.11248594  0.05624297       0.007
   0.13123360  0.11248594  0.05624297       0.014
   0.13123360  0.13123360  0.05624297       0.007
   0.07499063  0.07499063  0.07499063       0.002
   0.09373828  0.07499063  0.07499063       0.007
   0.11248594  0.07499063  0.07499063       0.007
   0.13123360  0.07499063  0.07499063       0.007
   0.09373828  0.09373828  0.07499063       0.007
   0.11248594  0.09373828  0.07499063       0.014
   0.13123360  0.09373828  0.07499063       0.014
   0.11248594  0.11248594  0.07499063       0.007
   0.13123360  0.11248594  0.07499063       0.014
   0.13123360  0.13123360  0.07499063       0.007
   0.09373828  0.09373828  0.09373828       0.002
   0.11248594  0.09373828  0.09373828       0.007
   0.13123360  0.09373828  0.09373828       0.007
   0.11248594  0.11248594  0.09373828       0.007
   0.13123360  0.11248594  0.09373828       0.014
   0.13123360  0.13123360  0.09373828       0.007
   0.11248594  0.11248594  0.11248594       0.002
   0.13123360  0.11248594  0.11248594       0.007
   0.13123360  0.13123360  0.11248594       0.007
   0.13123360  0.13123360  0.13123360       0.002
 
 k-points in reciprocal lattice and weights: Generate k-mesh automatically           
   0.00000000  0.00000000  0.00000000       0.000
   0.06666667  0.00000000  0.00000000       0.002
   0.13333333  0.00000000  0.00000000       0.002
   0.20000000  0.00000000  0.00000000       0.002
   0.26666667  0.00000000  0.00000000       0.002
   0.33333333  0.00000000  0.00000000       0.002
   0.40000000  0.00000000  0.00000000       0.002
   0.46666667  0.00000000  0.00000000       0.002
   0.06666667  0.06666667  0.00000000       0.004
   0.13333333  0.06666667  0.00000000       0.007
   0.20000000  0.06666667  0.00000000       0.007
   0.26666667  0.06666667  0.00000000       0.007
   0.33333333  0.06666667  0.00000000       0.007
   0.40000000  0.06666667  0.00000000       0.007
   0.46666667  0.06666667  0.00000000       0.007
   0.13333333  0.13333333  0.00000000       0.004
   0.20000000  0.13333333  0.00000000       0.007
   0.26666667  0.13333333  0.00000000       0.007
   0.33333333  0.13333333  0.00000000       0.007
   0.40000000  0.13333333  0.00000000       0.007
   0.46666667  0.13333333  0.00000000       0.007
   0.20000000  0.20000000  0.00000000       0.004
   0.26666667  0.20000000  0.00000000       0.007
   0.33333333  0.20000000  0.00000000       0.007
   0.40000000  0.20000000  0.00000000       0.007
   0.46666667  0.20000000  0.00000000       0.007
   0.26666667  0.26666667  0.00000000       0.004
   0.33333333  0.26666667  0.00000000       0.007
   0.40000000  0.26666667  0.00000000       0.007
   0.46666667  0.26666667  0.00000000       0.007
   0.33333333  0.33333333  0.00000000       0.004
   0.40000000  0.33333333  0.00000000       0.007
   0.46666667  0.33333333  0.00000000       0.007
   0.40000000  0.40000000  0.00000000       0.004
   0.46666667  0.40000000  0.00000000       0.007
   0.46666667  0.46666667  0.00000000       0.004
   0.06666667  0.06666667  0.06666667       0.002
   0.13333333  0.06666667  0.06666667       0.007
   0.20000000  0.06666667  0.06666667       0.007
   0.26666667  0.06666667  0.06666667       0.007
   0.33333333  0.06666667  0.06666667       0.007
   0.40000000  0.06666667  0.06666667       0.007
   0.46666667  0.06666667  0.06666667       0.007
   0.13333333  0.13333333  0.06666667       0.007
   0.20000000  0.13333333  0.06666667       0.014
   0.26666667  0.13333333  0.06666667       0.014
   0.33333333  0.13333333  0.06666667       0.014
   0.40000000  0.13333333  0.06666667       0.014
   0.46666667  0.13333333  0.06666667       0.014
   0.20000000  0.20000000  0.06666667       0.007
   0.26666667  0.20000000  0.06666667       0.014
   0.33333333  0.20000000  0.06666667       0.014
   0.40000000  0.20000000  0.06666667       0.014
   0.46666667  0.20000000  0.06666667       0.014
   0.26666667  0.26666667  0.06666667       0.007
   0.33333333  0.26666667  0.06666667       0.014
   0.40000000  0.26666667  0.06666667       0.014
   0.46666667  0.26666667  0.06666667       0.014
   0.33333333  0.33333333  0.06666667       0.007
   0.40000000  0.33333333  0.06666667       0.014
   0.46666667  0.33333333  0.06666667       0.014
   0.40000000  0.40000000  0.06666667       0.007
   0.46666667  0.40000000  0.06666667       0.014
   0.46666667  0.46666667  0.06666667       0.007
   0.13333333  0.13333333  0.13333333       0.002
   0.20000000  0.13333333  0.13333333       0.007
   0.26666667  0.13333333  0.13333333       0.007
   0.33333333  0.13333333  0.13333333       0.007
   0.40000000  0.13333333  0.13333333       0.007
   0.46666667  0.13333333  0.13333333       0.007
   0.20000000  0.20000000  0.13333333       0.007
   0.26666667  0.20000000  0.13333333       0.014
   0.33333333  0.20000000  0.13333333       0.014
   0.40000000  0.20000000  0.13333333       0.014
   0.46666667  0.20000000  0.13333333       0.014
   0.26666667  0.26666667  0.13333333       0.007
   0.33333333  0.26666667  0.13333333       0.014
   0.40000000  0.26666667  0.13333333       0.014
   0.46666667  0.26666667  0.13333333       0.014
   0.33333333  0.33333333  0.13333333       0.007
   0.40000000  0.33333333  0.13333333       0.014
   0.46666667  0.33333333  0.13333333       0.014
   0.40000000  0.40000000  0.13333333       0.007
   0.46666667  0.40000000  0.13333333       0.014
   0.46666667  0.46666667  0.13333333       0.007
   0.20000000  0.20000000  0.20000000       0.002
   0.26666667  0.20000000  0.20000000       0.007
   0.33333333  0.20000000  0.20000000       0.007
   0.40000000  0.20000000  0.20000000       0.007
   0.46666667  0.20000000  0.20000000       0.007
   0.26666667  0.26666667  0.20000000       0.007
   0.33333333  0.26666667  0.20000000       0.014
   0.40000000  0.26666667  0.20000000       0.014
   0.46666667  0.26666667  0.20000000       0.014
   0.33333333  0.33333333  0.20000000       0.007
   0.40000000  0.33333333  0.20000000       0.014
   0.46666667  0.33333333  0.20000000       0.014
   0.40000000  0.40000000  0.20000000       0.007
   0.46666667  0.40000000  0.20000000       0.014
   0.46666667  0.46666667  0.20000000       0.007
   0.26666667  0.26666667  0.26666667       0.002
   0.33333333  0.26666667  0.26666667       0.007
   0.40000000  0.26666667  0.26666667       0.007
   0.46666667  0.26666667  0.26666667       0.007
   0.33333333  0.33333333  0.26666667       0.007
   0.40000000  0.33333333  0.26666667       0.014
   0.46666667  0.33333333  0.26666667       0.014
   0.40000000  0.40000000  0.26666667       0.007
   0.46666667  0.40000000  0.26666667       0.014
   0.46666667  0.46666667  0.26666667       0.007
   0.33333333  0.33333333  0.33333333       0.002
   0.40000000  0.33333333  0.33333333       0.007
   0.46666667  0.33333333  0.33333333       0.007
   0.40000000  0.40000000  0.33333333       0.007
   0.46666667  0.40000000  0.33333333       0.014
   0.46666667  0.46666667  0.33333333       0.007
   0.40000000  0.40000000  0.40000000       0.002
   0.46666667  0.40000000  0.40000000       0.007
   0.46666667  0.46666667  0.40000000       0.007
   0.46666667  0.46666667  0.46666667       0.002
 
 position of ions in fractional coordinates (direct lattice) 
   0.00000000  0.00000000  0.00000000
   0.00000000  0.50000000  0.50000000
   0.50000000  0.50000000  0.00000000
   0.50000000  0.00000000  0.50000000
   0.75000002  0.25000000  0.75000002
   0.25000000  0.25000000  0.25000000
   0.25000000  0.75000002  0.75000002
   0.75000002  0.75000002  0.25000000
 
 position of ions in cartesian coordinates  (Angst):
   0.00000000  0.00000000  0.00000000
   0.00000000  1.77800000  1.77800000
   1.77800000  1.77800000  0.00000000
   1.77800000  0.00000000  1.77800000
   2.66700006  0.88900000  2.66700006
   0.88900000  0.88900000  0.88900000
   0.88900000  2.66700006  2.66700006
   2.66700006  2.66700006  0.88900000
 


--------------------------------------------------------------------------------------------------------


 k-point  1 :   0.0000 0.0000 0.0000  plane waves:    1743
 k-point  2 :   0.0667 0.0000 0.0000  plane waves:    1723
 k-point  3 :   0.1333 0.0000 0.0000  plane waves:    1719
 k-point  4 :   0.2000 0.0000 0.0000  plane waves:    1711
 k-point  5 :   0.2667 0.0000 0.0000  plane waves:    1703
 k-point  6 :   0.3333 0.0000 0.0000  plane waves:    1703
 k-point  7 :   0.4000 0.0000 0.0000  plane waves:    1698
 k-point  8 :   0.4667 0.0000 0.0000  plane waves:    1686
 k-point  9 :   0.0667 0.0667 0.0000  plane waves:    1715
 k-point 10 :   0.1333 0.0667 0.0000  plane waves:    1706
 k-point 11 :   0.2000 0.0667 0.0000  plane waves:    1707
 k-point 12 :   0.2667 0.0667 0.0000  plane waves:    1706
 k-point 13 :   0.3333 0.0667 0.0000  plane waves:    1705
 k-point 14 :   0.4000 0.0667 0.0000  plane waves:    1699
 k-point 15 :   0.4667 0.0667 0.0000  plane waves:    1689
 k-point 16 :   0.1333 0.1333 0.0000  plane waves:    1707
 k-point 17 :   0.2000 0.1333 0.0000  plane waves:    1709
 k-point 18 :   0.2667 0.1333 0.0000  plane waves:    1704
 k-point 19 :   0.3333 0.1333 0.0000  plane waves:    1698
 k-point 20 :   0.4000 0.1333 0.0000  plane waves:    1692
 k-point 21 :   0.4667 0.1333 0.0000  plane waves:    1691
 k-point 22 :   0.2000 0.2000 0.0000  plane waves:    1703
 k-point 23 :   0.2667 0.2000 0.0000  plane waves:    1698
 k-point 24 :   0.3333 0.2000 0.0000  plane waves:    1692
 k-point 25 :   0.4000 0.2000 0.0000  plane waves:    1685
 k-point 26 :   0.4667 0.2000 0.0000  plane waves:    1688
 k-point 27 :   0.2667 0.2667 0.0000  plane waves:    1696
 k-point 28 :   0.3333 0.2667 0.0000  plane waves:    1688
 k-point 29 :   0.4000 0.2667 0.0000  plane waves:    1678
 k-point 30 :   0.4667 0.2667 0.0000  plane waves:    1688
 k-point 31 :   0.3333 0.3333 0.0000  plane waves:    1682
 k-point 32 :   0.4000 0.3333 0.0000  plane waves:    1680
 k-point 33 :   0.4667 0.3333 0.0000  plane waves:    1678
 k-point 34 :   0.4000 0.4000 0.0000  plane waves:    1680
 k-point 35 :   0.4667 0.4000 0.0000  plane waves:    1678
 k-point 36 :   0.4667 0.4667 0.0000  plane waves:    1680
 k-point 37 :   0.0667 0.0667 0.0667  plane waves:    1716
 k-point 38 :   0.1333 0.0667 0.0667  plane waves:    1711
 k-point 39 :   0.2000 0.0667 0.0667  plane waves:    1702
 k-point 40 :   0.2667 0.0667 0.0667  plane waves:    1702
 k-point 41 :   0.3333 0.0667 0.0667  plane waves:    1701
 k-point 42 :   0.4000 0.0667 0.0667  plane waves:    1703
 k-point 43 :   0.4667 0.0667 0.0667  plane waves:    1690
 k-point 44 :   0.1333 0.1333 0.0667  plane waves:    1704
 k-point 45 :   0.2000 0.1333 0.0667  plane waves:    1700
 k-point 46 :   0.2667 0.1333 0.0667  plane waves:    1699
 k-point 47 :   0.3333 0.1333 0.0667  plane waves:    1698
 k-point 48 :   0.4000 0.1333 0.0667  plane waves:    1694
 k-point 49 :   0.4667 0.1333 0.0667  plane waves:    1693
 k-point 50 :   0.2000 0.2000 0.0667  plane waves:    1702
 k-point 51 :   0.2667 0.2000 0.0667  plane waves:    1699
 k-point 52 :   0.3333 0.2000 0.0667  plane waves:    1693
 k-point 53 :   0.4000 0.2000 0.0667  plane waves:    1684
 k-point 54 :   0.4667 0.2000 0.0667  plane waves:    1685
 k-point 55 :   0.2667 0.2667 0.0667  plane waves:    1695
 k-point 56 :   0.3333 0.2667 0.0667  plane waves:    1684
 k-point 57 :   0.4000 0.2667 0.0667  plane waves:    1681
 k-point 58 :   0.4667 0.2667 0.0667  plane waves:    1687
 k-point 59 :   0.3333 0.3333 0.0667  plane waves:    1685
 k-point 60 :   0.4000 0.3333 0.0667  plane waves:    1680
 k-point 61 :   0.4667 0.3333 0.0667  plane waves:    1682
 k-point 62 :   0.4000 0.4000 0.0667  plane waves:    1678
 k-point 63 :   0.4667 0.4000 0.0667  plane waves:    1683
 k-point 64 :   0.4667 0.4667 0.0667  plane waves:    1680
 k-point 65 :   0.1333 0.1333 0.1333  plane waves:    1698
 k-point 66 :   0.2000 0.1333 0.1333  plane waves:    1693
 k-point 67 :   0.2667 0.1333 0.1333  plane waves:    1697
 k-point 68 :   0.3333 0.1333 0.1333  plane waves:    1697
 k-point 69 :   0.4000 0.1333 0.1333  plane waves:    1693
 k-point 70 :   0.4667 0.1333 0.1333  plane waves:    1691
 k-point 71 :   0.2000 0.2000 0.1333  plane waves:    1700
 k-point 72 :   0.2667 0.2000 0.1333  plane waves:    1688
 k-point 73 :   0.3333 0.2000 0.1333  plane waves:    1691
 k-point 74 :   0.4000 0.2000 0.1333  plane waves:    1695
 k-point 75 :   0.4667 0.2000 0.1333  plane waves:    1691
 k-point 76 :   0.2667 0.2667 0.1333  plane waves:    1697
 k-point 77 :   0.3333 0.2667 0.1333  plane waves:    1691
 k-point 78 :   0.4000 0.2667 0.1333  plane waves:    1691
 k-point 79 :   0.4667 0.2667 0.1333  plane waves:    1692
 k-point 80 :   0.3333 0.3333 0.1333  plane waves:    1687
 k-point 81 :   0.4000 0.3333 0.1333  plane waves:    1689
 k-point 82 :   0.4667 0.3333 0.1333  plane waves:    1689
 k-point 83 :   0.4000 0.4000 0.1333  plane waves:    1683
 k-point 84 :   0.4667 0.4000 0.1333  plane waves:    1686
 k-point 85 :   0.4667 0.4667 0.1333  plane waves:    1684
 k-point 86 :   0.2000 0.2000 0.2000  plane waves:    1692
 k-point 87 :   0.2667 0.2000 0.2000  plane waves:    1698
 k-point 88 :   0.3333 0.2000 0.2000  plane waves:    1688
 k-point 89 :   0.4000 0.2000 0.2000  plane waves:    1701
 k-point 90 :   0.4667 0.2000 0.2000  plane waves:    1698
 k-point 91 :   0.2667 0.2667 0.2000  plane waves:    1686
 k-point 92 :   0.3333 0.2667 0.2000  plane waves:    1690
 k-point 93 :   0.4000 0.2667 0.2000  plane waves:    1692
 k-point 94 :   0.4667 0.2667 0.2000  plane waves:    1693
 k-point 95 :   0.3333 0.3333 0.2000  plane waves:    1683
 k-point 96 :   0.4000 0.3333 0.2000  plane waves:    1687
 k-point 97 :   0.4667 0.3333 0.2000  plane waves:    1694
 k-point 98 :   0.4000 0.4000 0.2000  plane waves:    1689
 k-point 99 :   0.4667 0.4000 0.2000  plane waves:    1695
 k-point ** :   0.4667 0.4667 0.2000  plane waves:    1691
 k-point ** :   0.2667 0.2667 0.2667  plane waves:    1695
 k-point ** :   0.3333 0.2667 0.2667  plane waves:    1686
 k-point ** :   0.4000 0.2667 0.2667  plane waves:    1692
 k-point ** :   0.4667 0.2667 0.2667  plane waves:    1692
 k-point ** :   0.3333 0.3333 0.2667  plane waves:    1693
 k-point ** :   0.4000 0.3333 0.2667  plane waves:    1689
 k-point ** :   0.4667 0.3333 0.2667  plane waves:    1692
 k-point ** :   0.4000 0.4000 0.2667  plane waves:    1691
 k-point ** :   0.4667 0.4000 0.2667  plane waves:    1694
 k-point ** :   0.4667 0.4667 0.2667  plane waves:    1691
 k-point ** :   0.3333 0.3333 0.3333  plane waves:    1703
 k-point ** :   0.4000 0.3333 0.3333  plane waves:    1694
 k-point ** :   0.4667 0.3333 0.3333  plane waves:    1698
 k-point ** :   0.4000 0.4000 0.3333  plane waves:    1693
 k-point ** :   0.4667 0.4000 0.3333  plane waves:    1689
 k-point ** :   0.4667 0.4667 0.3333  plane waves:    1688
 k-point ** :   0.4000 0.4000 0.4000  plane waves:    1691
 k-point ** :   0.4667 0.4000 0.4000  plane waves:    1683
 k-point ** :   0.4667 0.4667 0.4000  plane waves:    1682
 k-point ** :   0.4667 0.4667 0.4667  plane waves:    1682

 maximum and minimum number of plane-waves per node :      1743     1678

 maximum number of plane-waves:      1743
 maximum index in each direction: 
   IXMAX=    7   IYMAX=    7   IZMAX=    7
   IXMIN=   -7   IYMIN=   -7   IZMIN=   -7


 serial   3D FFT for wavefunctions
 parallel 3D FFT for charge:
    minimum data exchange during FFTs selected (reduces bandwidth)


 total amount of memory used by VASP MPI-rank0    52950. kBytes
=======================================================================

   base      :      30000. kBytes
   nonl-proj :      13742. kBytes
   fftplans  :        495. kBytes
   grid      :       1624. kBytes
   one-center:         24. kBytes
   wavefun   :       7065. kBytes
 
     INWAV:  cpu time    0.0000: real time    0.0001
 Broyden mixing: mesh for mixing (old mesh)
   NGX = 15   NGY = 15   NGZ = 15
  (NGX  = 60   NGY  = 60   NGZ  = 60)
  gives a total of   3375 points

 initial charge density was supplied:
 charge density of overlapping atoms calculated
 number of electron      32.0000000 magnetization 
 keeping initial charge density in first step


--------------------------------------------------------------------------------------------------------


 Maximum index for augmentation-charges          437 (set IRDMAX)


--------------------------------------------------------------------------------------------------------


 First call to EWALD:  gamma=   0.498
 Maximum number of real-space cells 3x 3x 3
 Maximum number of reciprocal cells 3x 3x 3

    FEWALD:  cpu time    0.0012: real time    0.0012


--------------------------------------- Iteration      1(   1)  ---------------------------------------


    POTLOK:  cpu time    0.0084: real time    0.0110
    SETDIJ:  cpu time    0.0012: real time    0.0013
     EDDAV:  cpu time    1.4502: real time    1.4585
 BZINTS: Fermi energy: 16.613940; 32.000000 electrons
         Band energy: 103.624322;  BLOECHL correction:  0.000000
       DOS:  cpu time    0.0234: real time    0.0234
    --------------------------------------------
      LOOP:  cpu time    1.4832: real time    1.4943

 eigenvalue-minimisations  :  9600
 total energy-change (2. order) : 0.3732592E+02  (-0.1953556E+04)
 number of electron      32.0000000 magnetization 
 augmentation part       32.0000000 magnetization 

 Free energy of the ion-electron system (eV)
  ---------------------------------------------------
  alpha Z        PSCENC =       116.91895509
  Ewald energy   TEWEN  =     -1396.06297741
  -Hartree energ DENC   =       -69.66204992
  -exchange      EXHF   =         0.00000000
  -V(xc)+E(xc)   XCENC  =       109.85053118
  PAW double counting   =       868.17637104     -872.73161751
  entropy T*S    EENTRO =         0.00000000
  eigenvalues    EBANDS =       103.62432198
  atomic energy  EATOM  =      1177.21238794
  Solvation  Ediel_sol  =         0.00000000
  ---------------------------------------------------
  free energy    TOTEN  =        37.32592239 eV

  energy without entropy =       37.32592239  energy(sigma->0) =       37.32592239


--------------------------------------------------------------------------------------------------------




--------------------------------------- Iteration      1(   2)  ---------------------------------------


     EDDAV:  cpu time    2.0762: real time    2.0831
 BZINTS: Fermi energy:  8.711126; 32.000000 electrons
         Band energy:  -6.326655;  BLOECHL correction:  0.000000
       DOS:  cpu time    0.0189: real time    0.0190
    --------------------------------------------
      LOOP:  cpu time    2.0951: real time    2.1021

 eigenvalue-minimisations  : 13780
 total energy-change (2. order) :-0.1099510E+03  (-0.1037011E+03)
 number of electron      32.0000000 magnetization 
 augmentation part       32.0000000 magnetization 

 Free energy of the ion-electron system (eV)
  ---------------------------------------------------
  alpha Z        PSCENC =       116.91895509
  Ewald energy   TEWEN  =     -1396.06297741
  -Hartree energ DENC   =       -69.66204992
  -exchange      EXHF   =         0.00000000
  -V(xc)+E(xc)   XCENC  =       109.85053118
  PAW double counting   =       868.17637104     -872.73161751
  entropy T*S    EENTRO =         0.00000000
  eigenvalues    EBANDS =        -6.32665469
  atomic energy  EATOM  =      1177.21238794
  Solvation  Ediel_sol  =         0.00000000
  ---------------------------------------------------
  free energy    TOTEN  =       -72.62505428 eV

  energy without entropy =      -72.62505428  energy(sigma->0) =      -72.62505428


--------------------------------------------------------------------------------------------------------




--------------------------------------- Iteration      1(   3)  ---------------------------------------


     EDDAV:  cpu time    1.6068: real time    1.6120
 BZINTS: Fermi energy:  8.449022; 32.000000 electrons
         Band energy:  -9.078746;  BLOECHL correction:  0.000000
       DOS:  cpu time    0.0165: real time    0.0166
    --------------------------------------------
      LOOP:  cpu time    1.6233: real time    1.6285

 eigenvalue-minimisations  : 10520
 total energy-change (2. order) :-0.2752091E+01  (-0.2748434E+01)
 number of electron      32.0000000 magnetization 
 augmentation part       32.0000000 magnetization 

 Free energy of the ion-electron system (eV)
  ---------------------------------------------------
  alpha Z        PSCENC =       116.91895509
  Ewald energy   TEWEN  =     -1396.06297741
  -Hartree energ DENC   =       -69.66204992
  -exchange      EXHF   =         0.00000000
  -V(xc)+E(xc)   XCENC  =       109.85053118
  PAW double counting   =       868.17637104     -872.73161751
  entropy T*S    EENTRO =         0.00000000
  eigenvalues    EBANDS =        -9.07874603
  atomic energy  EATOM  =      1177.21238794
  Solvation  Ediel_sol  =         0.00000000
  ---------------------------------------------------
  free energy    TOTEN  =       -75.37714562 eV

  energy without entropy =      -75.37714562  energy(sigma->0) =      -75.37714562


--------------------------------------------------------------------------------------------------------




--------------------------------------- Iteration      1(   4)  ---------------------------------------


     EDDAV:  cpu time    2.0173: real time    2.0235
 BZINTS: Fermi energy:  8.418000; 32.000000 electrons
         Band energy:  -9.083812;  BLOECHL correction:  0.000000
       DOS:  cpu time    0.0166: real time    0.0166
    --------------------------------------------
      LOOP:  cpu time    2.0339: real time    2.0401

 eigenvalue-minimisations  : 13060
 total energy-change (2. order) :-0.5066199E-02  (-0.5066047E-02)
 number of electron      32.0000000 magnetization 
 augmentation part       32.0000000 magnetization 

 Free energy of the ion-electron system (eV)
  ---------------------------------------------------
  alpha Z        PSCENC =       116.91895509
  Ewald energy   TEWEN  =     -1396.06297741
  -Hartree energ DENC   =       -69.66204992
  -exchange      EXHF   =         0.00000000
  -V(xc)+E(xc)   XCENC  =       109.85053118
  PAW double counting   =       868.17637104     -872.73161751
  entropy T*S    EENTRO =         0.00000000
  eigenvalues    EBANDS =        -9.08381222
  atomic energy  EATOM  =      1177.21238794
  Solvation  Ediel_sol  =         0.00000000
  ---------------------------------------------------
  free energy    TOTEN  =       -75.38221181 eV

  energy without entropy =      -75.38221181  energy(sigma->0) =      -75.38221181


--------------------------------------------------------------------------------------------------------




--------------------------------------- Iteration      1(   5)  ---------------------------------------


     EDDAV:  cpu time    1.6339: real time    1.6387
 BZINTS: Fermi energy:  8.407447; 32.000000 electrons
         Band energy:  -9.083823;  BLOECHL correction:  0.000000
       DOS:  cpu time    0.0165: real time    0.0166
    CHARGE:  cpu time    0.0394: real time    0.0396
    MIXING:  cpu time    0.0006: real time    0.0006
    --------------------------------------------
      LOOP:  cpu time    1.6904: real time    1.6954

 eigenvalue-minimisations  : 10500
 total energy-change (2. order) :-0.1033215E-04  (-0.1033209E-04)
 number of electron      31.9999990 magnetization 
 augmentation part        0.8050132 magnetization 

 Broyden mixing:
  rms(total) = 0.11185E+01    rms(broyden)= 0.11184E+01
  rms(prec ) = 0.23549E+01
  weight for this iteration     100.00

 Free energy of the ion-electron system (eV)
  ---------------------------------------------------
  alpha Z        PSCENC =       116.91895509
  Ewald energy   TEWEN  =     -1396.06297741
  -Hartree energ DENC   =       -69.66204992
  -exchange      EXHF   =         0.00000000
  -V(xc)+E(xc)   XCENC  =       109.85053118
  PAW double counting   =       868.17637104     -872.73161751
  entropy T*S    EENTRO =         0.00000000
  eigenvalues    EBANDS =        -9.08382256
  atomic energy  EATOM  =      1177.21238794
  Solvation  Ediel_sol  =         0.00000000
  ---------------------------------------------------
  free energy    TOTEN  =       -75.38222215 eV

  energy without entropy =      -75.38222215  energy(sigma->0) =      -75.38222215


--------------------------------------------------------------------------------------------------------




--------------------------------------- Iteration      1(   6)  ---------------------------------------


    POTLOK:  cpu time    0.0052: real time    0.0053
    SETDIJ:  cpu time    0.0011: real time    0.0011
     EDDAV:  cpu time    1.6707: real time    1.6756
 BZINTS: Fermi energy:  9.211116; 32.000000 electrons
         Band energy:   7.351371;  BLOECHL correction:  0.000000
       DOS:  cpu time    0.0189: real time    0.0189
    CHARGE:  cpu time    0.0387: real time    0.0388
    MIXING:  cpu time    0.0005: real time    0.0005
    --------------------------------------------
      LOOP:  cpu time    1.7350: real time    1.7402

 eigenvalue-minimisations  : 10880
 total energy-change (2. order) : 0.1965307E+01  (-0.8981030E-01)
 number of electron      31.9999990 magnetization 
 augmentation part        0.7860193 magnetization 

 Broyden mixing:
  rms(total) = 0.66711E+00    rms(broyden)= 0.66711E+00
  rms(prec ) = 0.12991E+01
  weight for this iteration     100.00

 eigenvalues of (default mixing * dielectric matrix)
  average eigenvalue GAMMA=   2.3318
  2.3318

 Free energy of the ion-electron system (eV)
  ---------------------------------------------------
  alpha Z        PSCENC =       116.91895509
  Ewald energy   TEWEN  =     -1396.06297741
  -Hartree energ DENC   =       -85.02893290
  -exchange      EXHF   =         0.00000000
  -V(xc)+E(xc)   XCENC  =       111.22585069
  PAW double counting   =      1515.48860409    -1520.52217423
  entropy T*S    EENTRO =         0.00000000
  eigenvalues    EBANDS =         7.35137117
  atomic energy  EATOM  =      1177.21238794
  Solvation  Ediel_sol  =         0.00000000
  ---------------------------------------------------
  free energy    TOTEN  =       -73.41691555 eV

  energy without entropy =      -73.41691555  energy(sigma->0) =      -73.41691555


--------------------------------------------------------------------------------------------------------




--------------------------------------- Iteration      1(   7)  ---------------------------------------


    POTLOK:  cpu time    0.0052: real time    0.0053
    SETDIJ:  cpu time    0.0011: real time    0.0011
     EDDAV:  cpu time    1.8549: real time    1.8606
 BZINTS: Fermi energy:  9.922015; 32.000000 electrons
         Band energy:  26.563825;  BLOECHL correction:  0.000000
       DOS:  cpu time    0.0189: real time    0.0189
    CHARGE:  cpu time    0.0393: real time    0.0394
    MIXING:  cpu time    0.0004: real time    0.0006
    --------------------------------------------
      LOOP:  cpu time    1.9199: real time    1.9261

 eigenvalue-minimisations  : 12080
 total energy-change (2. order) : 0.6606985E+00  (-0.1153773E+00)
 number of electron      31.9999990 magnetization 
 augmentation part        0.7640511 magnetization 

 Broyden mixing:
  rms(total) = 0.15193E+00    rms(broyden)= 0.15193E+00
  rms(prec ) = 0.18159E+00
  weight for this iteration     100.00

 eigenvalues of (default mixing * dielectric matrix)
  average eigenvalue GAMMA=   2.3339
  2.0464  2.6214

 Free energy of the ion-electron system (eV)
  ---------------------------------------------------
  alpha Z        PSCENC =       116.91895509
  Ewald energy   TEWEN  =     -1396.06297741
  -Hartree energ DENC   =      -104.94710077
  -exchange      EXHF   =         0.00000000
  -V(xc)+E(xc)   XCENC  =       113.05320171
  PAW double counting   =      2741.02093300    -2746.51544123
  entropy T*S    EENTRO =         0.00000000
  eigenvalues    EBANDS =        26.56382459
  atomic energy  EATOM  =      1177.21238794
  Solvation  Ediel_sol  =         0.00000000
  ---------------------------------------------------
  free energy    TOTEN  =       -72.75621707 eV

  energy without entropy =      -72.75621707  energy(sigma->0) =      -72.75621707


--------------------------------------------------------------------------------------------------------




--------------------------------------- Iteration      1(   8)  ---------------------------------------


    POTLOK:  cpu time    0.0052: real time    0.0053
    SETDIJ:  cpu time    0.0011: real time    0.0011
     EDDAV:  cpu time    1.5927: real time    1.5972
 BZINTS: Fermi energy:  9.924459; 32.000000 electrons
         Band energy:  26.547950;  BLOECHL correction:  0.000000
       DOS:  cpu time    0.0189: real time    0.0189
    CHARGE:  cpu time    0.0379: real time    0.0380
    MIXING:  cpu time    0.0004: real time    0.0007
    --------------------------------------------
      LOOP:  cpu time    1.6563: real time    1.6614

 eigenvalue-minimisations  : 10500
 total energy-change (2. order) :-0.7100471E-02  (-0.4018663E-02)
 number of electron      31.9999990 magnetization 
 augmentation part        0.7642164 magnetization 

 Broyden mixing:
  rms(total) = 0.92216E-02    rms(broyden)= 0.92186E-02
  rms(prec ) = 0.14062E-01
  weight for this iteration     100.00

 eigenvalues of (default mixing * dielectric matrix)
  average eigenvalue GAMMA=   2.0215
  1.4934  2.3968  2.1744

 Free energy of the ion-electron system (eV)
  ---------------------------------------------------
  alpha Z        PSCENC =       116.91895509
  Ewald energy   TEWEN  =     -1396.06297741
  -Hartree energ DENC   =      -105.11324290
  -exchange      EXHF   =         0.00000000
  -V(xc)+E(xc)   XCENC  =       113.09195786
  PAW double counting   =      3106.16673777    -3111.52508588
  entropy T*S    EENTRO =         0.00000000
  eigenvalues    EBANDS =        26.54794998
  atomic energy  EATOM  =      1177.21238794
  Solvation  Ediel_sol  =         0.00000000
  ---------------------------------------------------
  free energy    TOTEN  =       -72.76331754 eV

  energy without entropy =      -72.76331754  energy(sigma->0) =      -72.76331754


--------------------------------------------------------------------------------------------------------




--------------------------------------- Iteration      1(   9)  ---------------------------------------


    POTLOK:  cpu time    0.0049: real time    0.0051
    SETDIJ:  cpu time    0.0011: real time    0.0012
     EDDAV:  cpu time    2.0038: real time    2.0098
 BZINTS: Fermi energy:  9.922499; 32.000000 electrons
         Band energy:  26.448652;  BLOECHL correction:  0.000000
       DOS:  cpu time    0.0199: real time    0.0199
    CHARGE:  cpu time    0.0395: real time    0.0396
    MIXING:  cpu time    0.0003: real time    0.0003
    --------------------------------------------
      LOOP:  cpu time    2.0695: real time    2.0759

 eigenvalue-minimisations  : 12860
 total energy-change (2. order) :-0.1339812E-03  (-0.1754830E-04)
 number of electron      31.9999990 magnetization 
 augmentation part        0.7644403 magnetization 

 Broyden mixing:
  rms(total) = 0.41237E-02    rms(broyden)= 0.41235E-02
  rms(prec ) = 0.74051E-02
  weight for this iteration     100.00

 eigenvalues of (default mixing * dielectric matrix)
  average eigenvalue GAMMA=   2.0947
  0.9889  2.6564  2.6564  2.0770

 Free energy of the ion-electron system (eV)
  ---------------------------------------------------
  alpha Z        PSCENC =       116.91895509
  Ewald energy   TEWEN  =     -1396.06297741
  -Hartree energ DENC   =      -105.01023459
  -exchange      EXHF   =         0.00000000
  -V(xc)+E(xc)   XCENC  =       113.08259978
  PAW double counting   =      3090.66142079    -3096.01425514
  entropy T*S    EENTRO =         0.00000000
  eigenvalues    EBANDS =        26.44865200
  atomic energy  EATOM  =      1177.21238794
  Solvation  Ediel_sol  =         0.00000000
  ---------------------------------------------------
  free energy    TOTEN  =       -72.76345152 eV

  energy without entropy =      -72.76345152  energy(sigma->0) =      -72.76345152


--------------------------------------------------------------------------------------------------------




--------------------------------------- Iteration      1(  10)  ---------------------------------------


    POTLOK:  cpu time    0.0051: real time    0.0052
    SETDIJ:  cpu time    0.0011: real time    0.0011
     EDDAV:  cpu time    1.6329: real time    1.6375
 BZINTS: Fermi energy:  9.923927; 32.000000 electrons
         Band energy:  26.528160;  BLOECHL correction:  0.000000
       DOS:  cpu time    0.0195: real time    0.0196
    CHARGE:  cpu time    0.0391: real time    0.0392
    MIXING:  cpu time    0.0003: real time    0.0003
    --------------------------------------------
      LOOP:  cpu time    1.6981: real time    1.7029

 eigenvalue-minimisations  : 10340
 total energy-change (2. order) :-0.1096508E-03  (-0.8584798E-05)
 number of electron      31.9999990 magnetization 
 augmentation part        0.7644319 magnetization 

 Broyden mixing:
  rms(total) = 0.77252E-03    rms(broyden)= 0.77248E-03
  rms(prec ) = 0.92854E-03
  weight for this iteration     100.00

 eigenvalues of (default mixing * dielectric matrix)
  average eigenvalue GAMMA=   2.0406
  1.0013  2.9908  2.4118  1.8996  1.8996

 Free energy of the ion-electron system (eV)
  ---------------------------------------------------
  alpha Z        PSCENC =       116.91895509
  Ewald energy   TEWEN  =     -1396.06297741
  -Hartree energ DENC   =      -105.09985813
  -exchange      EXHF   =         0.00000000
  -V(xc)+E(xc)   XCENC  =       113.09105943
  PAW double counting   =      3083.85141669    -3089.20270460
  entropy T*S    EENTRO =         0.00000000
  eigenvalues    EBANDS =        26.52815982
  atomic energy  EATOM  =      1177.21238794
  Solvation  Ediel_sol  =         0.00000000
  ---------------------------------------------------
  free energy    TOTEN  =       -72.76356118 eV

  energy without entropy =      -72.76356118  energy(sigma->0) =      -72.76356118


--------------------------------------------------------------------------------------------------------




--------------------------------------- Iteration      1(  11)  ---------------------------------------


    POTLOK:  cpu time    0.0050: real time    0.0052
    SETDIJ:  cpu time    0.0011: real time    0.0011
     EDDAV:  cpu time    2.0875: real time    2.0942
 BZINTS: Fermi energy:  9.923773; 32.000000 electrons
         Band energy:  26.519739;  BLOECHL correction:  0.000000
       DOS:  cpu time    0.0190: real time    0.0190
    --------------------------------------------
      LOOP:  cpu time    2.1126: real time    2.1196

 eigenvalue-minimisations  : 13340
 total energy-change (2. order) : 0.5090101E-06  (-0.1369338E-06)
 number of electron      31.9999990 magnetization 
 augmentation part        0.7644319 magnetization 

 Free energy of the ion-electron system (eV)
  ---------------------------------------------------
  alpha Z        PSCENC =       116.91895509
  Ewald energy   TEWEN  =     -1396.06297741
  -Hartree energ DENC   =      -105.09197887
  -exchange      EXHF   =         0.00000000
  -V(xc)+E(xc)   XCENC  =       113.09048503
  PAW double counting   =      3086.15105399    -3091.50122566
  entropy T*S    EENTRO =         0.00000000
  eigenvalues    EBANDS =        26.51973922
  atomic energy  EATOM  =      1177.21238794
  Solvation  Ediel_sol  =         0.00000000
  ---------------------------------------------------
  free energy    TOTEN  =       -72.76356067 eV

  energy without entropy =      -72.76356067  energy(sigma->0) =      -72.76356067


--------------------------------------------------------------------------------------------------------




 average (electrostatic) potential at core
  the test charge radii are     0.6991
  (the norm of the test charge is              1.0000)
       1 -45.2584       2 -45.2584       3 -45.2584       4 -45.2584       5 -45.2584
       6 -45.2584       7 -45.2584       8 -45.2584
 
 
 
 E-fermi :   9.9238     XC(G=0): -13.2960     alpha+bet :-17.8309


 k-point     1 :       0.0000    0.0000    0.0000
  band No.  band energies     occupation 
      1     -11.7392      2.00000
      2      -2.9700      2.00000
      3      -2.9700      2.00000
      4      -2.9700      2.00000
      5      -2.9700      2.00000
      6      -2.9700      2.00000
      7      -2.9700      2.00000
      8       3.5049      2.00000
      9       3.5049      2.00000
     10       3.5049      2.00000
     11       3.5049      2.00000
     12       3.5049      2.00000
     13       3.5049      2.00000
     14       9.8580      2.00000
     15       9.8580      2.00000
     16       9.8580      2.00000
     17      14.6370      0.00000
     18      14.6370      0.00000
     19      14.6370      0.00000
     20      14.6370      0.00000
     21      14.6370      0.00000
     22      14.6370      0.00000
     23      15.4741      0.00000
     24      15.4741      0.00000
     25      15.4741      0.00000
     26      23.3970      0.00000
     27      26.8003      0.00000
     28      26.8003      0.00000
     29      26.8003      0.00000
     30      26.8003      0.00000
     31      26.8003      0.00000
     32      26.8003      0.00000
     33      29.2707      0.00000
     34      33.2533      0.00000
     35      33.2533      0.00000
     36      33.2533      0.00000
     37      33.2533      0.00000
     38      33.2533      0.00000
     39      33.2533      0.00000
     40      36.4945      0.00000

 k-point     2 :       0.0667    0.0000    0.0000
  band No.  band energies     occupation 
      1     -11.6979      2.00000
      2      -4.0237      2.00000
      3      -2.9433      2.00000
      4      -2.9433      2.00000
      5      -2.9433      2.00000
      6      -2.9433      2.00000
      7      -1.8771      2.00000
      8       3.4126      2.00000
      9       3.4126      2.00000
     10       3.4126      2.00000
     11       3.4126      2.00000
     12       3.5452      2.00000
     13       3.5452      2.00000
     14       9.6846      2.00000
     15       9.6846      2.00000
     16       9.7566      2.00000
     17      14.3550      0.00000
     18      14.8079      0.00000
     19      14.8079      0.00000
     20      14.8079      0.00000
     21      14.8079      0.00000
     22      15.0154      0.00000
     23      15.4410      0.00000
     24      15.6832      0.00000
     25      15.6832      0.00000
     26      23.4284      0.00000
     27      26.6629      0.00000
     28      26.6629      0.00000
     29      26.7203      0.00000
     30      26.7203      0.00000
     31      26.7203      0.00000
     32      26.7203      0.00000
     33      29.3441      0.00000
     34      32.9846      0.00000
     35      33.1471      0.00000
     36      33.1471      0.00000
     37      33.1471      0.00000
     38      33.1471      0.00000
     39      33.4438      0.00000
     40      34.9869      0.00000

 k-point     3 :       0.1333    0.0000    0.0000
  band No.  band energies     occupation 
      1     -11.5742      2.00000
      2      -5.0297      2.00000
      3      -2.8651      2.00000
      4      -2.8651      2.00000
      5      -2.8651      2.00000
      6      -2.8651      2.00000
      7      -0.7553      2.00000
      8       3.1564      2.00000
      9       3.1564      2.00000
     10       3.1564      2.00000
     11       3.1565      2.00000
     12       3.6660      2.00000
     13       3.6660      2.00000
     14       9.2305      2.00000
     15       9.2305      2.00000
     16       9.4598      2.00000
     17      14.1613      0.00000
     18      15.2994      0.00000
     19      15.2994      0.00000
     20      15.2994      0.00000
     21      15.2994      0.00000
     22      15.3456      0.00000
     23      15.4982      0.00000
     24      16.2439      0.00000
     25      16.2439      0.00000
     26      23.4907      0.00000
     27      26.2683      0.00000
     28      26.2683      0.00000
     29      26.4701      0.00000
     30      26.4701      0.00000
     31      26.4701      0.00000
     32      26.4701      0.00000
     33      29.5584      0.00000
     34      32.6492      0.00000
     35      32.8554      0.00000
     36      32.8554      0.00000
     37      32.8554      0.00000
     38      32.8554      0.00000
     39      33.1680      0.00000
     40      33.5436      0.00000

 k-point     4 :       0.2000    0.0000    0.0000
  band No.  band energies     occupation 
      1     -11.3683      2.00000
      2      -5.9803      2.00000
      3      -2.7418      2.00000
      4      -2.7418      2.00000
      5      -2.7418      2.00000
      6      -2.7418      2.00000
      7       0.3827      2.00000
      8       2.7892      2.00000
      9       2.7892      2.00000
     10       2.7892      2.00000
[...]
      1      -7.7820      2.00000
      2      -7.2189      2.00000
      3      -5.4986      2.00000
      4      -5.4986      2.00000
      5      -3.1082      2.00000
      6      -3.1082      2.00000
      7      -1.4395      2.00000
      8      -0.8949      2.00000
      9       5.0920      2.00000
     10       5.0920      2.00000
     11       6.1216      2.00000
     12       6.1216      2.00000
     13       6.4582      2.00000
     14       6.4974      2.00000
     15       6.8043      2.00000
     16       7.0846      2.00000
     17      17.5101      0.00000
     18      17.7643      0.00000
     19      17.9055      0.00000
     20      17.9055      0.00000
     21      18.9214      0.00000
     22      19.0713      0.00000
     23      19.0713      0.00000
     24      19.0728      0.00000
     25      19.4262      0.00000
     26      19.6524      0.00000
     27      21.0271      0.00000
     28      21.0271      0.00000
     29      24.7654      0.00000
     30      25.0335      0.00000
     31      25.3216      0.00000
     32      25.3216      0.00000
     33      29.8093      0.00000
     34      29.8093      0.00000
     35      30.8637      0.00000
     36      31.0041      0.00000
     37      32.8547      0.00000
     38      33.0955      0.00000
     39      34.1430      0.00000
     40      34.1430      0.00000

 k-point   114 :       0.4000    0.4000    0.3333
  band No.  band energies     occupation 
      1      -7.8605      2.00000
      2      -6.2559      2.00000
      3      -6.2559      2.00000
      4      -5.5706      2.00000
      5      -3.1824      2.00000
      6      -2.5137      2.00000
      7      -2.5137      2.00000
      8      -0.9588      2.00000
      9       5.3146      2.00000
     10       5.7790      2.00000
     11       5.7790      2.00000
     12       6.3103      2.00000
     13       6.3532      2.00000
     14       6.3532      2.00000
     15       6.9973      2.00000
     16       7.3829      2.00000
     17      17.5297      0.00000
     18      17.6176      0.00000
     19      17.6176      0.00000
     20      18.1712      0.00000
     21      18.4062      0.00000
     22      18.7165      0.00000
     23      19.3445      0.00000
     24      19.3445      0.00000
     25      19.7047      0.00000
     26      20.2631      0.00000
     27      20.2631      0.00000
     28      20.3889      0.00000
     29      25.0540      0.00000
     30      25.0540      0.00000
     31      25.3181      0.00000
     32      25.3365      0.00000
     33      30.1704      0.00000
     34      30.5210      0.00000
     35      30.5210      0.00000
     36      31.0912      0.00000
     37      33.3233      0.00000
     38      33.7673      0.00000
     39      33.7673      0.00000
     40      34.2265      0.00000

 k-point   115 :       0.4667    0.4000    0.3333
  band No.  band energies     occupation 
      1      -7.3743      2.00000
      2      -6.8327      2.00000
      3      -5.9089      2.00000
      4      -5.6444      2.00000
      5      -3.2537      2.00000
      6      -2.9948      2.00000
      7      -2.0955      2.00000
      8      -1.5703      2.00000
      9       5.5408      2.00000
     10       5.6980      2.00000
     11       6.3229      2.00000
     12       6.4766      2.00000
     13       6.4898      2.00000
     14       6.6946      2.00000
     15       6.7810      2.00000
     16       7.1794      2.00000
     17      17.8648      0.00000
     18      17.8868      0.00000
     19      18.0748      0.00000
     20      18.0764      0.00000
     21      18.6095      0.00000
     22      18.7724      0.00000
     23      18.9241      0.00000
     24      19.0205      0.00000
     25      19.0964      0.00000
     26      19.5742      0.00000
     27      20.2501      0.00000
     28      20.2533      0.00000
     29      25.2085      0.00000
     30      25.3217      0.00000
     31      25.4210      0.00000
     32      25.5093      0.00000
     33      30.3671      0.00000
     34      30.4748      0.00000
     35      30.9358      0.00000
     36      31.1188      0.00000
     37      33.4056      0.00000
     38      33.5426      0.00000
     39      34.0554      0.00000
     40      34.2598      0.00000

 k-point   116 :       0.4667    0.4667    0.3333
  band No.  band energies     occupation 
      1      -6.9097      2.00000
      2      -6.4075      2.00000
      3      -6.4075      2.00000
      4      -5.9834      2.00000
      5      -3.0662      2.00000
      6      -2.6520      2.00000
      7      -2.6520      2.00000
      8      -2.1633      2.00000
      9       5.8657      2.00000
     10       6.1201      2.00000
     11       6.1201      2.00000
     12       6.4393      2.00000
     13       6.7596      2.00000
     14       6.8742      2.00000
     15       6.8742      2.00000
     16       7.1318      2.00000
     17      18.0268      0.00000
     18      18.2172      0.00000
     19      18.2172      0.00000
     20      18.3574      0.00000
     21      18.4375      0.00000
     22      18.6063      0.00000
     23      18.6063      0.00000
     24      18.9598      0.00000
     25      19.1213      0.00000
     26      19.5659      0.00000
     27      19.5659      0.00000
     28      19.6962      0.00000
     29      25.4574      0.00000
     30      25.4759      0.00000
     31      25.4759      0.00000
     32      25.5679      0.00000
     33      30.7830      0.00000
     34      30.9545      0.00000
     35      30.9545      0.00000
     36      31.1558      0.00000
     37      33.8324      0.00000
     38      33.9813      0.00000
     39      33.9813      0.00000
     40      34.3646      0.00000

 k-point   117 :       0.4000    0.4000    0.4000
  band No.  band energies     occupation 
      1      -7.4518      2.00000
      2      -5.9819      2.00000
      3      -5.9819      2.00000
      4      -5.9819      2.00000
      5      -3.0695      2.00000
      6      -3.0695      2.00000
      7      -3.0695      2.00000
      8      -1.6383      2.00000
      9       6.1049      2.00000
     10       6.1050      2.00000
     11       6.1050      2.00000
     12       6.5226      2.00000
     13       6.5226      2.00000
     14       6.5226      2.00000
     15       7.1896      2.00000
     16       7.1896      2.00000
     17      17.7648      0.00000
     18      17.7648      0.00000
     19      17.7648      0.00000
     20      18.2863      0.00000
     21      18.2863      0.00000
     22      18.6800      0.00000
     23      19.2272      0.00000
     24      19.2272      0.00000
     25      19.2272      0.00000
     26      19.7166      0.00000
     27      19.7166      0.00000
     28      19.7166      0.00000
     29      25.3859      0.00000
     30      25.3859      0.00000
     31      25.3859      0.00000
     32      25.4644      0.00000
     33      30.8042      0.00000
     34      30.8042      0.00000
     35      30.8042      0.00000
     36      31.2697      0.00000
     37      34.0499      0.00000
     38      34.0499      0.00000
     39      34.0499      0.00000
     40      34.4454      0.00000

 k-point   118 :       0.4667    0.4000    0.4000
  band No.  band energies     occupation 
      1      -6.9860      2.00000
      2      -6.4822      2.00000
      3      -5.7893      2.00000
      4      -5.7893      2.00000
      5      -3.4040      2.00000
      6      -3.4040      2.00000
      7      -2.7254      2.00000
      8      -2.2344      2.00000
      9       6.2160      2.00000
     10       6.2160      2.00000
     11       6.6707      2.00000
     12       6.6707      2.00000
     13       6.7177      2.00000
     14       6.7479      2.00000
     15       6.9743      2.00000
     16       7.0937      2.00000
     17      17.9831      0.00000
     18      18.0692      0.00000
     19      18.0692      0.00000
     20      18.1583      0.00000
     21      18.5027      0.00000
     22      18.7598      0.00000
     23      18.7598      0.00000
     24      18.8199      0.00000
     25      18.8225      0.00000
     26      19.1772      0.00000
     27      19.6092      0.00000
     28      19.6092      0.00000
     29      25.4462      0.00000
     30      25.4843      0.00000
     31      25.5538      0.00000
     32      25.5538      0.00000
     33      30.9940      0.00000
     34      30.9940      0.00000
     35      31.2238      0.00000
     36      31.3626      0.00000
     37      33.9943      0.00000
     38      34.1467      0.00000
     39      34.1889      0.00000
     40      34.1889      0.00000

 k-point   119 :       0.4667    0.4667    0.4000
  band No.  band energies     occupation 
      1      -6.5579      2.00000
      2      -6.1306      2.00000
      3      -6.1306      2.00000
      4      -5.8624      2.00000
      5      -3.4788      2.00000
      6      -3.2155      2.00000
      7      -3.2155      2.00000
      8      -2.7970      2.00000
      9       6.4979      2.00000
     10       6.6442      2.00000
     11       6.6442      2.00000
     12       6.8605      2.00000
     13       6.8701      2.00000
     14       6.9124      2.00000
     15       6.9124      2.00000
     16       7.0931      2.00000
     17      18.1717      0.00000
     18      18.2217      0.00000
     19      18.2217      0.00000
     20      18.3261      0.00000
     21      18.3619      0.00000
     22      18.5284      0.00000
     23      18.5284      0.00000
     24      18.6478      0.00000
     25      18.8425      0.00000
     26      19.1063      0.00000
     27      19.1063      0.00000
     28      19.1925      0.00000
     29      25.5517      0.00000
     30      25.5672      0.00000
     31      25.5672      0.00000
     32      25.5989      0.00000
     33      31.3413      0.00000
     34      31.4055      0.00000
     35      31.4055      0.00000
     36      31.5092      0.00000
     37      34.2023      0.00000
     38      34.2023      0.00000
     39      34.2205      0.00000
     40      34.3707      0.00000

 k-point   120 :       0.4667    0.4667    0.4667
  band No.  band energies     occupation 
      1      -6.2048      2.00000
      2      -5.9354      2.00000
      3      -5.9354      2.00000
      4      -5.9354      2.00000
      5      -3.5548      2.00000
      6      -3.5548      2.00000
      7      -3.5548      2.00000
      8      -3.2900      2.00000
      9       6.9038      2.00000
     10       6.9038      2.00000
     11       6.9038      2.00000
     12       6.9543      2.00000
     13       6.9543      2.00000
     14       6.9543      2.00000
     15       7.0335      2.00000
     16       7.0335      2.00000
     17      18.2695      0.00000
     18      18.2695      0.00000
     19      18.2695      0.00000
     20      18.3205      0.00000
     21      18.3205      0.00000
     22      18.4292      0.00000
     23      18.4292      0.00000
     24      18.4292      0.00000
     25      18.7689      0.00000
     26      18.8760      0.00000
     27      18.8760      0.00000
     28      18.8760      0.00000
     29      25.5840      0.00000
     30      25.5966      0.00000
     31      25.5966      0.00000
     32      25.5966      0.00000
     33      31.6940      0.00000
     34      31.6940      0.00000
     35      31.6940      0.00000
     36      31.7355      0.00000
     37      34.1651      0.00000
     38      34.1651      0.00000
     39      34.1651      0.00000
     40      34.2449      0.00000


--------------------------------------------------------------------------------------------------------


 soft charge-density along one line, spin component           1
         0         1         2         3         4         5         6         7         8         9
 total charge-density along one line
 
 pseudopotential strength for first ion, spin component:           1
  9.427  12.518  -0.000  -0.000  -0.000   0.000   0.000   0.000
 12.518  16.622  -0.000  -0.000  -0.000   0.000   0.000   0.000
 -0.000  -0.000  -3.656   0.000   0.000   7.161  -0.000  -0.000
 -0.000  -0.000   0.000  -3.656   0.000  -0.000   7.161  -0.000
 -0.000  -0.000   0.000   0.000  -3.656  -0.000  -0.000   7.161
  0.000   0.000   7.161  -0.000  -0.000 -16.121   0.000   0.000
  0.000   0.000  -0.000   7.161  -0.000   0.000 -16.121   0.000
  0.000   0.000  -0.000  -0.000   7.161   0.000   0.000 -16.121
 total augmentation occupancy for first ion, spin component:           1
  7.402  -3.264   0.000   0.000  -0.000   0.000  -0.000   0.000
 -3.264   1.525   0.000   0.000  -0.000  -0.000  -0.000  -0.000
  0.000   0.000   1.581  -0.000   0.000   0.133  -0.000  -0.000
 -0.000   0.000   0.000   1.581   0.000  -0.000   0.133   0.000
  0.000  -0.000  -0.000  -0.000   1.581  -0.000   0.000   0.133
  0.000   0.000   0.133  -0.000  -0.000   0.013  -0.000   0.000
  0.000  -0.000  -0.000   0.133   0.000  -0.000   0.013   0.000
  0.000   0.000  -0.000   0.000   0.133   0.000   0.000   0.013


------------------------ aborting loop because EDIFF is reached ----------------------------------------


    CHARGE:  cpu time    0.0371: real time    0.0372
    FORLOC:  cpu time    0.0006: real time    0.0006
    FORNL :  cpu time    0.2054: real time    0.2060
    STRESS:  cpu time    0.9244: real time    0.9267
    FORCOR:  cpu time    0.0049: real time    0.0050
    FORHAR:  cpu time    0.0014: real time    0.0014
    MIXING:  cpu time    0.0003: real time    0.0003
    OFIELD:  cpu time    0.0000: real time    0.0000

  Hirshfeld charges:
            ion         q(e)     
   ------------------------------
      1     C           0.000
      2     C          -0.000
      3     C          -0.000
      4     C          -0.000
      5     C           0.000
      6     C           0.000
      7     C           0.000
      8     C           0.000

  Tkatchenko/Scheffler method for vdW energy calculation
  ---------------------------------------------------------------------------------------------

  Parameters of vdW forcefield:
            C6ts              R0ts           ALPHAts        RELVOL
            (au)              (au)            (au)                
   ---------------------------------------------------------------
   C          38.437          3.477         10.898          0.908
   C          38.437          3.477         10.898          0.908
   C          38.437          3.477         10.898          0.908
   C          38.437          3.477         10.898          0.908
   C          38.437          3.477         10.898          0.908
   C          38.437          3.477         10.898          0.908
   C          38.437          3.477         10.898          0.908
   C          38.437          3.477         10.898          0.908
  Edisp (eV):   -1.75305
    FORVDW:  cpu time    9.9738: real time   10.0554

  FORCE on cell =-STRESS in cart. coord.  units (eV):
  Direction    XX          YY          ZZ          XY          YZ          ZX
  --------------------------------------------------------------------------------------
  Alpha Z   116.71301   116.71301   116.71301
  Ewald    -465.08172  -465.08172  -465.08172    -0.00002    -0.00002    -0.00002
  Hartree    35.06472    35.06472    35.06472    -0.00000    -0.00000    -0.00000
  E(xc)    -121.96116  -121.96116  -121.96116     0.00000     0.00000     0.00000
  Local     -44.00075   -44.00075   -44.00075     0.00001     0.00001     0.00001
  n-local   -28.70699   -29.47677   -28.92698     0.68591     0.81429     0.40626
  augment    -2.92160    -2.92160    -2.92160     0.00000     0.00000     0.00000
  Kinetic   501.25823   517.46103   519.01669    -4.91903    -6.60256    -3.46964
  Fock        0.00000     0.00000     0.00000     0.00000     0.00000     0.00000
  vdW        -0.16224    -1.55355    -2.55908     0.31632     0.22729     0.18387
  -------------------------------------------------------------------------------------
  Total      -0.07073    -0.07073    -0.07073     0.00000     0.00000    -0.00000
  in kB      -2.51577    -2.51577    -2.51577     0.00000     0.00000    -0.00000
  external pressure =       -2.52 kB  Pullay stress =        0.00 kB


 VOLUME and BASIS-vectors are now :
 -----------------------------------------------------------------------------
  energy-cutoff  :      650.00
  volume of cell :       45.05
      direct lattice vectors                 reciprocal lattice vectors
     3.558090375  0.000000000  0.000000000     0.281049635  0.000000000 -0.000000000
    -0.000000000  3.558090375  0.000000000    -0.000000000  0.281049635  0.000000000
     0.000000000 -0.000000000  3.558090375    -0.000000000 -0.000000000  0.281049635

  length of vectors
     3.558090375  3.558090375  3.558090375     0.281049635  0.281049635  0.281049635


 FORCES acting on ions
    electron-ion (+dipol)            ewald-force                    non-local-force                 convergence-correction
 -----------------------------------------------------------------------------------------------
   -.618E-07 -.618E-07 -.618E-07   0.259E-05 0.259E-05 0.259E-05   0.564E-16 -.191E-16 0.390E-16   0.393E-11 0.392E-11 0.392E-11
   -.618E-07 -.618E-07 -.618E-07   0.259E-05 0.259E-05 0.259E-05   0.416E-16 -.152E-16 0.199E-16   0.393E-11 0.392E-11 0.392E-11
   -.618E-07 -.618E-07 -.618E-07   0.259E-05 0.259E-05 0.259E-05   0.781E-17 0.182E-16 0.234E-16   0.393E-11 0.392E-11 0.392E-11
   -.618E-07 -.618E-07 -.618E-07   0.259E-05 0.259E-05 0.259E-05   0.503E-16 -.130E-17 0.199E-16   0.393E-11 0.392E-11 0.392E-11
   -.147E-04 -.126E-06 -.147E-04   -.105E-04 0.527E-05 -.105E-04   -.208E-16 0.212E-16 -.130E-16   -.592E-10 0.307E-10 -.592E-10
   -.126E-06 -.126E-06 -.126E-06   0.527E-05 0.527E-05 0.527E-05   -.130E-16 -.147E-16 -.165E-16   0.307E-10 0.307E-10 0.307E-10
   -.126E-06 -.147E-04 -.147E-04   0.527E-05 -.105E-04 -.105E-04   -.347E-16 -.230E-16 -.781E-17   0.307E-10 -.592E-10 -.592E-10
   -.147E-04 -.147E-04 -.126E-06   -.105E-04 -.105E-04 0.527E-05   -.408E-16 0.867E-17 -.408E-16   -.592E-10 -.592E-10 0.307E-10
 -----------------------------------------------------------------------------------------------
   -.300E-04 -.300E-04 -.300E-04   -.140E-13 -.145E-13 -.134E-15   0.468E-16 -.252E-16 0.243E-16   -.414E-10 -.414E-10 -.414E-10
 
 
 POSITION                                       TOTAL-FORCE (eV/Angst)
 -----------------------------------------------------------------------------------
     -0.00000     -0.00000     -0.00000         0.000000      0.000000      0.000000
     -0.00000      1.77905      1.77905         0.000000      0.000000      0.000000
      1.77905      1.77905      0.00000        -0.000000      0.000000      0.000000
      1.77905     -0.00000      1.77905         0.000000      0.000000      0.000000
      2.66857      0.88952      2.66857        -0.000000     -0.000000     -0.000000
      0.88952      0.88952      0.88952         0.000000     -0.000000     -0.000000
      0.88952      2.66857      2.66857        -0.000000     -0.000000     -0.000000
      2.66857      2.66857      0.88952        -0.000000     -0.000000     -0.000000
 -----------------------------------------------------------------------------------
    total drift:                               -0.000030     -0.000030     -0.000030


--------------------------------------------------------------------------------------------------------



  FREE ENERGIE OF THE ION-ELECTRON SYSTEM (eV)
  ---------------------------------------------------
  free  energy   TOTEN  =       -74.51919325 eV

  energy  without entropy=      -74.51919325  energy(sigma->0) =      -74.51919325
 
 d Force = 0.0000000E+00[ 0.000E+00, 0.000E+00]  d Energy = 0.7674433E-04-0.767E-04
 d Force = 0.0000000E+00[ 0.000E+00, 0.000E+00]  d Ewald  = 0.4589086E+00-0.459E+00


--------------------------------------------------------------------------------------------------------


    POTLOK:  cpu time    0.0066: real time    0.0066


