 -7.4216169e-01   3.4062439e-03
  5.5436939e-02   9.8364390e-03
 -1.0843771e+00   5.3124018e-03
  6.9322175e-01   9.0702912e-03
 -5.3314900e-01   5.8628828e-03
 -1.3873467e+00   8.2422039e-03
 -1.0242285e+00   1.2390731e-02
  5.8436060e-01   2.1087019e-02
  2.0060582e-01   3.9376050e-02
  4.6783027e-01   2.4929795e-02
 -2.6575801e-01   3.8578369e-02
  4.3132748e-02   9.8318225e-03
  7.7310896e-01   1.6481999e-02
  1.3278938e-02   7.4000736e-03
  5.4908866e-01   5.8806092e-02
  1.1653361e-01   5.2799720e-02
  3.8325509e-01   2.5575517e-02
  4.7702050e-01   5.7452545e-02
 -5.2349907e-01   2.4396796e-02
  4.7288761e-01   2.5136733e-02
  1.7441869e-01   2.6846696e-02
  6.3802814e-01   2.9614624e-02
  3.4169558e-01   4.5816857e-02
  7.1796942e-01   2.9927641e-02
 -2.4273983e-01   6.1831664e-02
 -3.2418694e-02   2.1248944e-02
  3.0814989e-02   3.5526812e-02
  1.5755738e-01   1.9580878e-02
  2.7419913e-01   5.6087207e-02
  2.8685254e-01   7.9961613e-02
  3.4350280e-02   2.9132418e-02
 -1.2335959e-01   4.0388826e-02
 -1.6775307e-01   8.2044723e-03
  4.1451126e-01   4.2657580e-02
  5.2475291e-01   2.2959528e-02
  7.3758341e-02   9.0617128e-02
 -1.3953240e-01   7.9111747e-02
 -3.0135003e-01   2.6551040e-02
  2.7414331e-01   6.3926011e-02
  1.3759325e-01   4.7292173e-02
  1.3470681e-01   6.6053346e-02
 -1.0910482e+00   3.2089923e-02
  5.2060798e-02   7.7597387e-02
 -3.4754080e-01   4.0831495e-02
  2.9050684e-01   7.3589213e-02
 -2.9133672e-03   2.6580943e-02
  2.4208102e-01   6.1992370e-02
 -7.0859246e-02   8.2448065e-02
  4.1950250e-01   2.7221091e-02
 -2.1962468e-01   3.3866111e-02
  6.7423798e-02   5.4270685e-02
  3.8156545e-01   5.8887549e-02
  7.7058184e-01   5.9324391e-02
  4.1646466e-02   4.4720169e-02
  2.0754613e-01   6.2434781e-02
  2.5638655e-02   7.9884574e-02
 -5.4901387e-03   8.1231616e-02
 -7.8612946e-02   4.4591807e-02
  6.2151734e-02   5.4150496e-02
  4.1230280e-02   2.8485835e-02
  5.7605408e-02   7.6850869e-02
 -2.4546954e-01   6.3632913e-02
 -4.2184746e-01   5.3233489e-02
  2.1341918e-01   8.5179210e-02
 -7.4446380e-02   7.5011246e-02
  1.4230317e-02   7.2093077e-02
  7.9044342e-02   8.4175922e-02
  5.1074915e-02   4.2996362e-02
 -1.2919482e+00   2.7934305e-02
  4.6779186e-01   6.2810726e-02
 -3.9988631e-01   7.6656967e-02
  1.0841419e-02   5.7619914e-02
  3.4624282e-01   9.4225101e-02
 -3.3915326e-01   5.2782230e-02
  6.9161874e-01   4.3313790e-02
 -1.2968847e-01   5.8524601e-02
 -1.7614372e-01   8.6140312e-02
 -3.7901407e-01   3.5555542e-02
 -2.9966518e-01   7.5862423e-02
 -2.9317966e-01   8.9541100e-02
 -6.2754354e-03   3.7078634e-02
  1.3008463e-01   5.7066184e-02
 -3.0630115e-01   6.8471931e-02
 -1.7172168e-01   4.7808796e-02
 -1.0639010e-02   5.4378435e-02
 -1.1049580e-01   7.2406277e-02
  1.6636227e-01   4.1604020e-02
  1.0119391e-01   5.0097696e-02
 -1.3489137e-02   2.4298634e-02
 -2.8286079e-01   8.4251076e-02
  4.9625739e-02   6.6360399e-02
  2.8789952e-01   6.6550232e-02
 -5.9536934e-02   8.1808217e-02
 -2.4589036e-01   4.6057083e-02
 -1.2268920e-02   5.4551169e-02
 -3.7980494e-01   3.6433637e-02
  2.4549705e-01   7.0080921e-02
 -4.8987310e-02   4.0102456e-02
 -8.0795623e-03   4.9172193e-02
 -1.2369101e-02   8.4287129e-02
 -2.2418688e-01   6.7653604e-02
  1.5477465e-01   5.4471534e-02
 -5.0423309e-02   5.0311714e-02
  2.4537551e-01   4.3489177e-02
 -9.4726905e-03   8.1644960e-02
  4.7545987e-01   7.8419112e-02
 -9.5550865e-02   6.4821765e-02
  8.5010171e-02   4.8591059e-02
  1.5244716e-01   6.5429240e-02
  1.2649892e-01   3.9109848e-02
  3.7377393e-01   1.0000000e-01
  6.9796614e-02   4.8058577e-02
  3.0590150e-01   4.6616621e-02
  2.4204025e-01   8.3556779e-02
 -1.0941339e-02   6.0982939e-02
 -1.0236917e-01   6.3788310e-02
  2.4568363e-01   5.1723506e-02
 -1.7859986e-01   4.1206975e-02
 -1.1807149e-01   7.1873620e-02
  2.9190501e-02   6.1771177e-02
 -1.6210814e-01   4.7877021e-02
 -3.0074254e-01   9.4228923e-02
 -5.2833062e-01   7.0153780e-02
 -8.0412340e-01   4.9775224e-02
 -1.5635230e-01   8.3499372e-02
 -7.5581133e-02   8.1709564e-02
  1.2802732e-01   6.7430019e-02
 -1.6678245e-01   5.6831192e-02
 -1.0640565e-01   5.3126991e-02
 -1.5801638e-01   2.3512568e-02
  2.1464269e-01   7.4583031e-02
 -5.7232106e-01   5.0868418e-02
  8.2324162e-02   8.0258362e-02
  1.6994236e-02   4.9534809e-02
  3.9012778e-01   1.7554794e-02
  2.6354045e-01   5.7449296e-02
  8.3747143e-03   4.6652708e-02
  6.2714256e-02   8.2949989e-02
  2.0167190e-01   6.0787998e-02
  8.6728521e-02   7.3612109e-02
 -5.8123045e-02   2.8460806e-02
  6.6884853e-02   7.2633095e-02
  1.7517635e-01   9.3053795e-02
  7.5742865e-01   3.3012275e-02
 -1.3583180e-01   5.1737107e-02
  6.0098514e-02   4.2716451e-02
  2.0963328e-01   7.1843252e-02
 -9.3403131e-01   1.5492408e-02
  3.5352647e-01   1.8126007e-02
  6.8417853e-01   1.8607596e-02
  4.5004743e-01   4.3896630e-02
  1.1365348e-02   2.1863831e-02
 -1.0303087e+00   3.0999845e-02
 -4.0405634e-01   5.0409757e-02
 -3.4911260e-01   6.3102923e-02
 -1.1156534e-01   7.4952506e-02
 -2.6195323e-02   6.3850425e-02
 -2.6904139e-01   5.9867565e-02
 -6.5558940e-01   3.4861021e-02
  3.3854789e-01   1.2782406e-02
  6.3346839e-01   6.3441768e-02
  2.4109903e-01   3.4879413e-02
 -8.8173920e-01   2.4886668e-02
 -3.1938706e-02   6.4411238e-02
 -2.6579142e-01   7.3986322e-02
 -6.5646482e-01   6.2152252e-02
 -6.3940400e-01   5.9292167e-02
  2.8028077e-01   4.7647342e-02
  1.3855895e-01   1.0000000e-01
 -1.6222915e-01   3.7587572e-02
 -9.7334981e-02   8.5428827e-02
 -9.0170644e-02   7.0826679e-02
 -1.6605316e-02   7.4025400e-02
 -9.6122974e-01   5.1690839e-02
  3.2145995e-01   5.9869189e-02
 -6.3435063e-02   5.1028296e-02
  6.1000317e-01   4.5138381e-02
 -7.5068176e-01   2.7185580e-02
  4.1824254e-01   3.1808678e-02
 -3.4467191e-01   6.8706453e-02
 -4.1013170e-02   3.4774847e-02
  2.1814640e-01   6.8111800e-02
 -9.5989987e-02   5.8818970e-02
  5.5657588e-02   8.0887772e-02
 -1.0001181e-01   8.9109756e-02
 -3.2796759e-02   6.5206856e-02
 -4.1162694e-01   3.9329365e-02
  8.4296244e-01   9.7548492e-02
  3.4629017e-01   1.8047247e-02
 -1.9993603e-01   7.8313813e-02
 -4.5013651e-01   4.8671659e-02
 -6.4867996e-02   5.8335677e-02
  1.9724780e-01   8.3821952e-02
 -4.1276366e-01   8.1873223e-02
  8.9352541e-03   5.6428231e-02
  1.6983463e-01   7.2723031e-02
 -3.0747471e-02   2.6935017e-02
  8.9067477e-01   3.4221314e-02
 -2.8681397e-02   3.8319588e-02
  4.8348315e-02   4.8295852e-02
 -2.0236571e-01   3.9688367e-02
  8.5471652e-02   4.1555643e-02
  5.4262495e-01   5.0683018e-02
  6.6128902e-02   7.7763364e-02
 -8.0402568e-02   4.0908262e-02
 -3.2186102e-02   8.6675711e-02
 -9.8820582e-02   5.8003627e-02
 -4.5970399e-02   5.0489925e-02
 -3.3211040e-01   4.8889760e-02
 -3.4690583e-01   6.7018323e-02
  9.4941907e-02   3.5491809e-02
  5.3275671e-02   3.0923644e-02
 -6.7713566e-02   5.9908234e-02
 -1.8346293e-02   8.2680151e-02
 -8.2962602e-02   4.9747977e-02
 -2.3747981e-01   8.3781861e-02
  7.6999888e-02   4.3999117e-02
 -3.1505880e-01   7.2952338e-02
  1.5331356e-01   7.4219838e-02
  2.3395160e-02   6.8055570e-02
  1.6011046e+00   3.2031901e-02
  1.1670896e-02   4.4178393e-02
  1.3359135e-01   5.7117853e-02
 -6.4882353e-02   4.9611457e-02
 -3.5597172e-01   5.8466516e-02
 -5.2753788e-01   2.7599985e-02
 -6.6088648e-03   8.2264207e-02
  1.3052629e-01   7.3970281e-02
  5.9590483e-01   2.1740450e-02
 -3.3778638e-01   4.0335938e-02
  7.1790859e-02   4.1481994e-02
  1.5391567e-01   4.5845985e-02
 -1.9307304e-02   2.2754200e-02
 -2.4270656e-02   6.7959264e-02
  1.0841785e-01   5.5866439e-02
  3.5579613e-01   6.5172262e-02
  1.6465810e-01   5.9823390e-02
  1.0317122e+00   2.8239498e-02
  4.3017599e-01   4.4611868e-02
 -2.5958669e-01   5.4087274e-02
 -1.1597928e-01   3.3902120e-02
 -5.4473031e-02   3.8278788e-02
  1.8085160e+00   1.4363407e-02
  1.2443048e-02   6.3752413e-02
 -5.7408962e-02   6.2808268e-02
 -8.6151069e-01   8.4912535e-03
 -2.0246425e-01   3.3415377e-02
  1.8011092e+00   2.0406995e-02
 -3.1767109e-01   2.3310527e-02
  6.4464402e-01   2.4696177e-02
  8.7918699e-01   1.4304210e-02
  5.1771146e-01   2.8516792e-02
  8.2789546e-01   2.6778964e-02
 -4.9088281e-03   7.2262861e-02
 -3.9432785e-01   5.5060416e-02
  9.1134325e-02   6.6810660e-02
 -4.7526125e-02   3.8972028e-02
  1.1056346e-01   7.2974935e-02
 -1.0371322e-01   4.2248964e-02
 -6.3778538e-01   5.4173090e-02
 -2.8400946e-01   5.6299463e-02
  3.8066265e-01   6.8868913e-02
 -1.2789075e-01   6.5110110e-02
  9.6752167e-01   6.6858359e-02
 -1.2294708e-01   6.4595021e-02
 -1.0293818e-01   5.3026445e-02
  9.5758192e-02   8.0932088e-02
 -5.8370233e-01   1.4252994e-02
  8.9189090e-02   5.0233372e-02
 -2.5736329e-01   4.7026947e-02
  4.5161298e-01   4.9684562e-02
  5.8055174e-01   2.3635026e-02
 -2.6350711e-02   3.5600379e-02
  2.3957242e-01   6.4441763e-02
 -1.2593742e-01   5.7407532e-02
  3.3461496e-01   3.2134153e-02
  6.1953016e-02   7.3471040e-02
 -1.3526390e-01   2.2628283e-02
 -9.2390448e-02   5.5935238e-02
 -8.9387409e-02   2.9507842e-02
  1.2505558e-01   3.1639390e-02
  4.7114545e-01   7.7061236e-02
 -1.1091519e-01   9.5846966e-02
  2.5335920e-01   4.5012210e-02
 -1.4572969e-01   7.7781677e-02
 -5.9464872e-01   6.6724509e-02
  1.9820251e-01   5.4331701e-02
  9.5056042e-02   4.5848507e-02
 -3.0791476e-01   8.6174242e-02
  1.5834281e-01   5.8235735e-02
  9.8866910e-02   1.9078854e-02
  4.6769866e-01   5.1864885e-02
 -7.9479867e-01   3.2565411e-02
 -4.9463723e-02   3.1834196e-02
 -1.4214042e-01   4.9587935e-02
 -7.8182943e-02   3.6272258e-02
  4.7353242e-02   3.9888311e-02
 -2.5881836e-03   5.7308033e-02
 -7.4667707e-02   3.6170453e-02
  2.4532640e-01   4.5463152e-02
 -6.8871534e-01   6.8681471e-02
  2.2197083e-02   8.3917193e-02
  1.4653994e-01   5.6401193e-02
 -3.8360071e-01   5.3187273e-02
  1.1743332e-01   7.1068183e-02
  4.1901582e-01   4.1647330e-02
  1.9205733e-01   4.6159044e-02
 -1.2731630e-02   4.1002940e-02
  7.6269329e-02   8.7168410e-02
  6.0277218e-01   1.8009959e-02
  9.9676646e-02   4.0268004e-02
 -2.5865847e-01   5.9383493e-02
 -1.7036766e-01   5.7163954e-02
 -4.8213806e-02   6.2897474e-02
  2.0553552e-01   7.0677020e-02
  1.8963334e-01   6.9906943e-02
 -3.0214134e-01   3.5411254e-02
 -4.9169448e-01   5.8464840e-02
 -2.6829311e-01   2.8509019e-02
  4.4244972e-01   3.3160090e-02
  3.6940504e-02   6.0063444e-02
 -5.8166809e-02   5.9831187e-02
 -5.3793620e-03   3.8692474e-02
 -1.7112742e-01   6.4825140e-02
  8.9645788e-02   5.6930214e-02
 -4.4220304e-01   4.6076197e-02
 -1.7895976e-01   6.9290072e-02
 -7.4455041e-01   2.6089951e-02
 -2.1881171e-01   6.8779036e-02
 -2.0177612e-01   7.6654926e-02
 -7.3898554e-02   3.0795524e-02
  1.8345083e-01   6.4708903e-02
  4.7707316e-02   3.1483959e-02
  1.5130409e-02   5.7295606e-02
 -7.8316398e-02   8.5936330e-02
  3.6265414e-02   3.7520252e-02
 -6.8883978e-02   9.2952780e-02
  2.9737324e-01   4.5713499e-02
  1.0489603e+00   5.8132645e-02
 -1.8733495e-01   9.1211043e-02
  9.0223894e-02   4.6711005e-02
 -1.2479007e-01   5.0479550e-02
 -4.3257090e-01   5.4505751e-02
  9.3422785e-02   2.3737838e-02
  3.1038266e-01   4.1916169e-02
  4.1912434e-01   3.7036441e-02
 -5.5488819e-01   7.7253096e-02
 -8.8864408e-02   3.1445354e-02
 -2.1106858e-02   4.3019287e-02
 -3.3748606e-01   3.6256213e-02
 -3.7097178e-02   7.3436186e-02
  2.2391675e-01   7.5232804e-02
  8.2775280e-02   5.1577937e-02
 -4.9291000e-02   8.0028228e-02
 -1.0029903e-01   5.8704719e-02
 -4.2838717e-01   4.2166777e-02
 -5.0628010e-02   3.3827808e-02
 -1.1442494e-01   4.8808038e-02
 -3.4218660e-01   2.8283741e-02
 -5.4862783e-03   6.3874714e-02
  9.1970086e-01   3.4316521e-02
  3.8169146e-01   2.8175443e-02
 -8.9612162e-01   8.7870978e-02
  2.0553231e-01   8.0961421e-02
  8.7075062e-02   6.4645447e-02
  7.8883968e-02   8.0128118e-02
  8.1363276e-02   3.6444522e-02
  1.3978079e-02   3.2422442e-02
  1.6930577e-01   6.9936007e-02
 -2.6841816e-01   4.7913652e-02
 -2.5492403e-01   5.6199543e-02
  3.5377003e-02   6.6571347e-02
 -1.8188220e-01   7.5517364e-02
  4.8367485e-02   5.1268097e-02
 -3.5207194e-01   7.5198039e-02
  1.6109334e-01   3.4157880e-02
 -7.7060246e-01   2.6258919e-02
  2.1288069e-01   4.9097002e-02
 -1.8254673e-01   3.9203905e-02
 -2.5361699e-01   9.0040401e-02
  2.6259869e-02   4.2138115e-02
  4.0642194e-02   5.3171091e-02
 -2.3777924e-01   3.3639021e-02
  3.4581527e-01   4.9308795e-02
  7.5711146e-02   4.5242924e-02
  1.0409144e-01   9.0347491e-02
  1.0113278e-03   6.4521044e-02
 -2.1006113e-01   6.4692035e-02
 -2.4356820e-01   5.2909829e-02
 -8.2495205e-02   5.5156790e-02
 -1.3837179e+00   3.5580862e-02
  5.3481805e-01   3.7035018e-02
 -3.8447347e-01   4.9774814e-03
 -9.3524921e-01   2.8038898e-02
  9.6637660e-01   7.2538187e-03
 -1.9295041e-01   3.2796334e-02
  1.0769807e+00   1.3464122e-02
 -5.4655892e-01   2.3533966e-02
  3.3987847e-01   2.9850274e-02
 -2.9102328e-01   7.3972411e-02
 -4.2013761e-02   4.2447295e-02
  7.0664060e-01   3.1150406e-02
  1.1138622e-01   6.9717810e-02
  3.8531533e-01   3.4322325e-02
  6.8352506e-02   2.4400158e-02
  1.5132111e+00   2.0721298e-02
 -1.4093474e-01   7.5143293e-02
 -2.0117334e-01   6.9847524e-02
 -3.2081366e-01   6.5342486e-02
  3.6334604e-01   4.4311211e-02
  5.7545573e-01   6.0751867e-02
  2.4909360e-02   4.9276184e-02
 -4.8406339e-01   5.0231293e-02
 -3.9690983e-01   4.3548044e-02
 -1.6129026e-01   7.4033134e-02
 -2.7120447e-02   3.2953873e-02
  5.0299650e-01   8.9520171e-02
  9.2608786e-01   5.3226192e-02
 -1.7642470e-01   7.8550249e-02
 -3.0030238e-02   3.2773018e-02
  1.8432301e-02   3.0582104e-02
 -3.1503728e-01   9.6376792e-02
 -2.6070282e-01   6.6763610e-02
  2.8019330e-02   6.1920010e-02
  4.1015086e-01   4.1825328e-02
 -7.4149376e-01   4.3385327e-02
 -1.5111892e-01   7.2942518e-02
  5.0802785e-01   8.1425935e-02
  2.3979150e-01   3.9270788e-02
 -3.0726275e-01   8.9793801e-02
 -5.4233007e-02   9.5085002e-02
 -1.4819734e-01   6.5924019e-02
  1.3443068e-01   3.2360826e-02
  2.3928788e-01   4.8086368e-02
  1.6787836e-01   6.8794087e-02
  8.5274965e-02   6.1369929e-02
  1.4000632e-02   4.6365999e-02
 -4.1587964e-01   5.9722256e-02
  6.0037142e-01   1.6960293e-02
  1.5956329e-01   7.3699698e-02
  8.6589411e-02   6.0513593e-02
 -2.7682406e-01   5.3604445e-03
  6.8994731e-02   1.2039224e-02
 -8.0813277e-01   6.1199157e-03
 -5.1585704e-01   7.2238827e-03
 -2.6950938e-01   1.0202485e-02
 -1.1212305e+00   7.2081243e-03
 -7.5261891e-01   1.1939941e-02
  2.8675812e-01   3.5354167e-02
  6.3060351e-02   7.1944520e-02
 -2.4866003e-01   5.7259250e-02
  9.2741139e-02   3.9878167e-02
 -3.1485307e-01   1.7815825e-02
  5.0532877e-02   2.8986445e-02
  1.2679820e-01   2.3094418e-02
  6.3117146e-01   5.8947757e-02
 -1.3887848e-01   4.2077012e-02
  2.6044035e-01   6.7180373e-02
 -1.6202932e-02   6.3824959e-02
  9.3167251e-01   3.4249444e-02
  1.0977813e+00   4.1285791e-02
  9.8823738e-01   1.6764723e-02
  7.2360492e-01   4.3232001e-02
  5.9099770e-01   3.8232122e-02
  2.3666228e-01   5.8688134e-02
 -5.0217703e-02   5.2798968e-02
 -1.3374222e-02   1.5611588e-02
  1.4728315e+00   5.9162226e-02
 -3.9225549e-01   2.9344928e-02
  5.4690170e-01   7.7705875e-02
  8.3562948e-02   2.2263529e-02
  7.6726913e-01   3.6704533e-02
 -3.0183050e-01   4.5442447e-02
  5.1657367e-02   1.3593175e-02
  2.2803731e-01   2.5197545e-02
 -4.5107883e-01   1.8139165e-02
  1.1973122e-02   8.9329571e-02
 -4.6201315e-02   8.1649020e-02
 -1.0538538e-01   6.9137506e-02
  9.3134210e-02   3.5749603e-02
  3.6890480e-01   5.3443480e-02
 -6.1119150e-02   3.8499165e-02
 -4.7738150e-01   4.2942751e-02
  1.2017312e-02   5.1208284e-02
  1.5219709e-02   4.7502454e-02
 -1.1942416e-02   4.1148067e-02
  8.2774870e-02   6.2796444e-02
  2.0174015e-01   5.1385693e-02
  3.5794476e-01   6.2926017e-02
  2.1002980e-01   4.2330477e-02
 -1.0386642e-01   4.4584065e-03
 -5.1517171e-01   4.8111007e-02
 -6.6441730e-02   5.1253233e-02
  6.9993496e-01   1.1356661e-02
  2.6216620e-01   5.9540864e-02
  6.3192666e-01   5.6039747e-03
  1.4530853e+00   4.5583736e-02
 -7.1253347e-01   2.1588329e-02
 -2.2228104e-01   5.7046693e-03
  4.0904716e-01   5.7934946e-03
 -1.2957674e+00   6.5816417e-03
  3.8622897e-02   2.0613704e-02
 -1.9091861e-02   5.8570458e-03
  2.1210901e-01   2.6253227e-03
  1.5337299e-01   5.6745070e-03
  5.7523251e-01   5.2114488e-03
 -4.6466228e-01   1.7293263e-02
  3.2106128e-01   1.7510412e-02
  1.0302680e+00   6.2495316e-03
 -1.4505693e+00   9.2056608e-03
  1.1253375e-01   3.6695596e-02
  2.5217053e-01   3.2675538e-02
 -4.8423123e-02   3.9875757e-02
 -4.6938010e-02   5.6853808e-02
 -8.6075574e-02   4.4204239e-02
 -3.9176559e-01   2.3639308e-02
 -7.5787626e-02   6.4726554e-02
  3.1376544e-02   7.5855881e-02
 -6.5151587e-02   6.2310208e-02
 -6.8297692e-02   5.9323963e-02
  9.3685091e-03   6.7633361e-02
  2.3662870e-01   6.2687971e-02
 -5.2125055e-01   7.2526008e-02
  3.8910416e-01   4.1448575e-02
  5.8761263e-01   5.3652830e-02
 -1.0611013e-01   3.9196450e-02
  5.0347254e-02   4.2262316e-02
 -7.5888559e-02   4.7765631e-02
 -1.8204805e-02   8.4354974e-02
  5.0057054e-01   3.4193348e-02
 -3.9248727e-02   5.7425000e-02
 -5.6090735e-02   3.2798525e-02
 -8.5030997e-01   6.7240417e-02
  3.3736521e-01   9.9076353e-02
  2.4375513e-01   3.7248854e-02
  5.0237173e-01   6.8713635e-02
  3.3339021e-01   5.6313310e-02
 -2.9427659e-02   7.1742058e-02
 -2.4965331e-01   3.6259174e-02
 -7.6311685e-02   8.0428109e-02
 -1.2782104e-01   4.7164820e-02
  3.8884652e-01   5.6241266e-02
 -5.4177575e-02   3.8630441e-02
 -1.3386030e-01   5.9947364e-02
  1.0084067e-02   6.6526756e-02
 -2.3704492e-01   6.3173689e-02
 -1.4597055e-01   4.2620312e-02
 -4.5756441e-02   7.9698406e-02
 -3.8488585e-01   6.2773876e-02
 -6.4841464e-02   6.4294174e-02
  3.7389991e-01   3.6785655e-02
  3.1503797e-01   6.6545323e-02
  5.8271267e-02   8.3236769e-02
  1.3670029e-02   3.9697006e-02
  1.4475082e-01   7.7938400e-02
 -7.6658860e-02   5.8841988e-02
 -1.3494452e+00   1.4390424e-02
  6.7979842e-01   3.4744713e-02
  3.8919640e-01   4.7729313e-02
 -3.4200832e-02   7.7193007e-02
  2.6239318e-01   4.3427914e-02
  1.8366445e-02   5.2241769e-02
 -1.8827684e-01   6.7529775e-02
 -1.1968064e-01   7.7860102e-02
 -3.6245844e-01   6.5588400e-02
 -3.2776752e-01   8.2116082e-02
  1.0078552e-01   5.7557054e-02
  2.4399558e-01   8.5550085e-02
 -5.6948483e-01   3.1048143e-02
 -1.0191707e-01   5.4182600e-02
  1.2643945e-01   7.8993894e-02
  2.5991151e-01   7.7379607e-02
 -5.0870109e-02   7.4886739e-02
 -9.2847412e-04   3.1902377e-02
 -3.1997751e-02   6.7613162e-02
 -5.9971582e-02   7.0972539e-02
 -8.4706945e-03   4.3963354e-02
 -1.9213147e-02   2.6889825e-02
 -1.5497167e-02   4.0194392e-02
  1.6622479e-01   4.2646617e-02
 -1.3883425e-01   6.7908891e-02
  9.9268936e-02   8.4679402e-02
  9.0836257e-02   6.3886724e-02
 -2.1921806e-01   9.0034395e-02
  7.7811390e-02   8.6028151e-02
  2.5152096e-01   8.3378635e-02
  3.5328567e-03   4.3168005e-02
 -1.0443397e-01   3.3020701e-02
 -2.2748237e-02   4.5365244e-02
  1.7226152e-01   5.5525564e-02
  1.0842362e-01   5.8199733e-02
  5.4284567e-01   8.5124597e-02
 -5.2011535e-02   3.6262561e-02
  7.0048027e-02   5.2990437e-02
  4.7303364e-02   9.8672293e-02
 -1.7206402e-02   3.9877217e-02
 -4.3738779e-01   9.8200984e-02
 -2.5129339e-01   5.6915618e-02
  1.1453592e-01   4.0881373e-02
 -2.7131781e-02   6.9444381e-02
 -1.7633915e-01   5.4971773e-02
 -3.7474620e-01   5.3903125e-02
 -6.0108017e-02   8.5473098e-02
 -7.4504860e-02   6.4185083e-02
 -6.3443892e-02   3.9112311e-02
 -3.6774796e-01   7.8796268e-02
 -1.0802526e+00   3.3541661e-02
 -8.9965187e-02   4.3708567e-02
  8.3152816e-02   7.3773995e-02
  2.5922579e-01   3.8437095e-02
  3.9110117e-02   6.7004472e-02
  4.1625664e-01   5.6870252e-02
  2.1001786e-01   5.6586545e-02
  1.2189943e-01   8.5140668e-02
 -2.1538059e-01   6.6746950e-02
 -6.5487057e-01   4.1765604e-02
  2.6280397e-01   8.8581651e-02
  1.5605655e-01   6.6619165e-02
  1.4762828e-01   6.3400507e-02
 -2.6994494e-01   9.5383927e-02
 -2.1685722e-01   5.4143462e-02
  2.8552565e-01   3.7243128e-02
 -1.4095011e-01   8.8487715e-02
  1.5081288e-01   4.1251961e-02
 -2.9694903e-01   3.6456037e-02
  3.7205490e-01   6.7101680e-02
  1.2791203e-01   4.6940316e-02
  1.6424106e-02   6.0110118e-02
  4.1140491e-01   7.5718492e-02
 -4.4514515e-02   5.4342039e-02
  1.0595097e-01   5.7278123e-02
 -4.0162012e-01   5.4091245e-02
  1.8594004e-01   9.8048113e-02
 -4.1462928e-01   8.6992905e-02
  1.5225327e-01   3.2952733e-02
 -2.4035786e-01   5.1655848e-02
  2.6245528e-01   8.6564854e-02
 -5.7131384e-02   5.0172925e-02
 -1.0204751e-01   2.2526421e-02
  4.1933130e-02   5.5435404e-02
  2.7654427e-01   9.0609409e-02
  1.5369287e-01   2.8265564e-02
 -2.9089829e-01   7.3743217e-02
 -3.5430723e-01   5.1375110e-02
  2.0610517e-01   7.8292988e-02
  1.3361882e-01   7.2201572e-02
  3.9473256e-01   2.4426453e-02
 -1.8242469e-01   3.0630592e-02
  5.5317584e-02   5.2572068e-02
  1.6845641e-01   6.1522741e-02
  3.0204418e-01   4.2268340e-02
  1.4112653e-01   6.2466603e-02
  5.7245386e-01   1.9857945e-02
 -6.1242707e-02   4.8339393e-02
 -9.7757900e-01   3.8126275e-02
 -3.4038836e-01   8.7228984e-02
 -8.6039566e-02   8.5174672e-02
 -9.1646951e-01   4.3160863e-02
  8.6577199e-02   6.7967236e-02
 -2.1155925e-01   5.6961615e-02
 -2.0012903e-01   7.2470620e-02
  5.1842820e-02   5.1601633e-02
  9.6164025e-02   5.3628512e-02
 -3.9828632e-02   7.1450301e-02
 -4.7880590e-02   5.4352112e-02
  3.0703723e-01   8.2262620e-02
 -4.2328325e-01   8.3655365e-02
  7.3272280e-02   8.1822082e-02
  2.2294326e-01   7.7690296e-02
  1.4969559e-01   5.0124902e-02
 -5.2014565e-01   6.1048705e-02
 -9.9009387e-02   3.9980590e-02
  2.7308977e-01   5.2834217e-02
 -2.8779726e-02   7.0702799e-02
  6.8130203e-02   5.7737019e-02
 -2.9669297e-01   5.0143387e-02
  2.1155688e-01   5.2093711e-02
 -7.1809605e-02   7.1872227e-02
 -3.7020501e-01   3.0158700e-02
 -1.1945476e-01   9.0763085e-02
  3.6581165e-01   6.1325323e-02
 -4.2035961e-01   6.0774401e-02
 -2.8046429e-01   7.1246929e-02
 -5.5331743e-01   5.0372135e-02
  5.7402734e-02   8.1246987e-02
 -7.3026812e-01   4.7065772e-02
 -1.6858064e-01   9.5760331e-02
 -2.0152724e-01   3.5264470e-02
  1.8025264e-01   8.0817595e-02
 -3.6194384e-01   7.2091311e-02
 -2.3141751e-01   6.7995101e-02
 -1.1892734e+00   3.2456759e-02
  1.4384110e-02   6.8638861e-02
  1.2469125e-01   4.1516062e-02
  1.1832065e-01   7.1224764e-02
 -1.2168140e-01   2.2821307e-02
 -8.5404992e-02   6.8009757e-02
  8.9399464e-02   4.6601739e-02
 -2.1451069e-03   9.4805159e-02
 -5.1640558e-01   6.2535666e-02
 -5.1574586e-03   7.0108116e-02
 -2.6294786e-02   8.4300034e-02
  9.8278336e-02   8.2675852e-02
 -1.2738654e-01   9.3802579e-02
 -6.1462000e-02   8.4453568e-02
 -1.4468999e-01   4.0698595e-02
  1.6525880e-01   5.0608452e-02
 -1.0773779e-01   5.9569322e-02
  1.2406593e-01   2.8775282e-02
 -1.7006217e-03   6.5259561e-02
 -1.7465057e-02   4.7198474e-02
 -5.2712694e-02   8.5458763e-02
 -1.8867807e-01   8.4979802e-02
 -4.2483979e-01   7.0598289e-02
 -1.0683905e-01   2.6542310e-02
 -1.2545446e-01   5.2761424e-02
 -4.0662682e-01   8.4145226e-02
  1.6260549e-01   6.7061283e-02
  5.8458932e-02   4.1442394e-02
 -8.6354166e-02   3.6491111e-02
  1.4730605e-01   5.9936818e-02
 -1.5300440e-02   5.5929452e-02
  1.4013657e-01   4.9007591e-02
 -5.0534066e-02   2.9189195e-02
 -1.2792400e-01   6.5635413e-02
 -9.5320028e-01   4.3844882e-02
 -4.3599841e-01   4.8623972e-02
  1.9429840e-01   4.3081641e-02
  2.7918901e-02   5.0443273e-02
 -2.1738693e-01   8.7249383e-02
  5.4465395e-01   5.0548248e-02
 -2.4124141e-01   5.0102405e-02
  8.9472733e-02   5.1792655e-02
 -3.8355988e-01   2.7914552e-02
  1.3729508e-01   5.6111973e-02
 -1.0023767e-02   2.8506503e-02
  8.3812647e-02   5.4881837e-02
  1.3992424e-01   4.0301818e-02
 -6.3930380e-01   5.1025834e-02
  6.7782062e-01   3.5659336e-02
  2.0370549e-01   3.0989297e-02
  1.5450078e-02   3.5896372e-02
 -1.2311824e-01   6.9395073e-02
 -8.8204600e-02   2.0564910e-02
  4.2700911e-01   5.1792968e-02
 -3.4677142e-01   5.1661838e-02
  2.1345946e-01   7.2229758e-02
  2.6396299e-02   5.5228628e-02
 -1.7674062e-01   5.7632457e-02
  9.3732089e-02   5.4295655e-02
 -2.2824039e-01   8.7759160e-02
  3.4526534e-02   3.5744481e-02
 -2.4149349e-01   7.0800513e-02
 -1.4787796e-01   6.8012439e-02
 -1.9956892e-02   9.2131540e-02
  2.1919237e-01   9.0273157e-02
 -5.8393043e-01   4.5749329e-02
 -7.5240046e-02   4.0756185e-02
 -5.0333120e-02   6.4287998e-02
 -3.4583920e-01   2.0162947e-02
 -1.3559129e-02   7.1089387e-02
  1.4717753e-01   2.0447681e-02
  2.2975598e-02   6.9556884e-02
 -1.6764262e-01   9.1644071e-02
 -4.3246526e-01   4.6810191e-02
 -3.3824679e-01   9.5798708e-02
 -1.2399159e-01   7.3871091e-02
 -8.0644608e-01   4.0135406e-02
  8.9608014e-02   8.8911816e-02
  3.3529198e-01   6.7847617e-02
  1.0258258e-01   4.1313082e-02
  5.7842586e-02   7.3635481e-02
 -2.7208644e-01   3.8626343e-02
  1.1946415e-01   4.1730259e-02
  3.8767838e-01   2.2883663e-02
 -2.5064912e-02   4.1703280e-02
  1.6066793e-01   3.7950706e-02
  3.1420249e-01   7.0574902e-02
  2.6858920e-02   7.0239618e-02
 -1.7702487e-01   3.3691805e-02
 -3.2109410e-01   8.4301353e-02
  6.3967265e-02   9.6393183e-02
  2.8754031e-02   8.2432568e-02
 -7.5028506e-03   6.5177955e-02
 -1.0081588e-01   3.2121450e-02
 -4.5253970e-02   6.0444571e-02
 -3.5262960e-01   3.1105092e-02
 -3.2680199e-01   4.7533382e-02
  1.3714455e-01   6.4627707e-02
  2.6480350e-01   5.7882529e-02
  1.3822676e-01   6.9271423e-02
 -7.6326430e-02   7.8914613e-02
  2.7938217e-01   3.6842767e-02
  1.1030840e-01   5.9250560e-02
  1.0044071e-01   8.2763284e-02
  5.1174295e-01   5.2024916e-02
 -3.0758104e-01   9.9562407e-02
  4.4840369e-02   3.1084169e-02
  3.9755777e-01   6.3510060e-02
 -4.3691078e-01   7.0434645e-02
 -1.1430963e-01   8.1519336e-02
  6.2160235e-02   5.8056660e-02
  1.3307058e+00   3.1068150e-02
 -1.5254072e-03   8.1841871e-02
 -1.7684288e-01   8.0833726e-02
  1.0124448e-01   5.2489962e-02
  3.9373204e-01   3.0876350e-02
  1.7512052e-01   7.0883103e-02
  3.4738623e-02   6.9032222e-02
  9.8151296e-02   7.4212447e-02
  3.8134640e-01   4.9830969e-02
  9.0331727e-01   3.8103424e-02
 -3.7895030e-01   3.6630575e-02
  3.8301639e-02   7.3050126e-02
  3.3480713e-01   2.8103994e-02
  1.6081388e-01   6.8790510e-02
  5.2432671e-02   6.1774805e-02
  2.8380507e-01   3.6013119e-02
 -7.4814707e-02   4.9078289e-02
 -1.1081985e-01   7.3345125e-02
 -7.8153551e-01   3.4105528e-02
 -1.5547879e-01   6.9701888e-02
 -8.3629303e-02   6.7560919e-02
 -2.3640377e-02   8.0194205e-02
  1.9417673e-01   2.5728874e-02
 -2.7591506e-01   8.8695280e-02
  3.1460088e-01   7.9042643e-02
  2.4410073e-02   4.4626568e-02
  4.2158701e-02   6.5248512e-02
  1.4898062e-01   3.8236823e-02
  1.8019165e-01   7.1365997e-02
 -1.7397688e-01   6.6906810e-02
  4.6230265e-01   5.8739975e-02
 -2.1761999e-01   5.3928062e-02
  2.6274187e-02   7.5725235e-02
  1.4614831e-01   9.7341478e-02
 -1.5164313e-01   9.3738563e-02
 -3.9698157e-01   1.9488590e-02
  2.3894675e-01   5.3055972e-02
 -1.6437139e-02   4.5151707e-02
  1.6689286e-01   4.9198963e-02
 -1.0688461e-01   7.4641868e-02
 -3.2623890e-01   4.8104089e-02
 -2.0859642e-01   4.0130142e-02
 -5.3619016e-02   5.1510066e-02
  2.6057869e-02   7.5185999e-02
  1.4818808e-01   3.9408006e-02
  2.7902469e-01   5.3487089e-02
  3.4519542e-02   3.8730606e-02
  4.0225547e-02   5.4637186e-02
  5.8834534e-02   3.9329357e-02
  6.5674853e-01   2.9572537e-02
  3.5624194e-01   7.0853487e-02
 -8.8737518e-02   7.2666287e-02
  4.3876007e-01   3.9397024e-02
  2.1400146e-02   4.0372208e-02
  1.5469804e-01   7.4662559e-02
  1.0873640e-01   7.4937478e-02
  1.9154748e-01   8.3304577e-02
  3.0476719e-01   3.4730934e-02
 -2.4453063e-01   6.6774338e-02
 -7.1351454e-02   5.0699607e-02
  4.5845965e-01   5.5649452e-02
 -7.3725887e-02   9.7728901e-02
 -9.2384152e-02   4.9488056e-02
 -3.7251025e-01   7.1320876e-02
 -4.4186428e-02   8.6781703e-02
 -1.2914407e-01   3.6227599e-02
  4.5255494e-01   4.8526276e-02
  8.4816366e-02   2.9559681e-02
 -3.3253584e-02   7.5098664e-02
  2.0107651e-01   5.7780482e-02
  6.9831379e-02   3.0301455e-02
 -5.2708882e-01   5.1063638e-02
  3.3512019e-02   5.8930356e-02
 -3.3660308e-01   3.9310623e-02
 -6.8822913e-02   3.6492545e-02
 -5.9656817e-02   7.9690769e-02
  4.3107292e-01   6.8345681e-02
  2.1513090e-02   6.5840304e-02
  2.3359200e-01   4.7865860e-02
  1.2138395e-01   9.0939991e-02
 -1.9146003e-01   5.0877735e-02
 -1.9490309e-01   5.5912297e-02
 -2.0929852e-01   6.7869745e-02
 -1.6322233e-02   5.4981943e-02
 -6.0272794e-02   7.3929012e-02
  7.0909995e-01   3.4215994e-02
 -5.1468998e-01   7.7208020e-02
 -3.5720059e-01   2.9952532e-02
 -6.1044574e-01   2.8521474e-02
 -1.3185890e-01   6.2176380e-02
  2.0512041e-01   6.9767430e-02
 -3.7549689e-01   4.7837596e-02
 -4.6872150e-02   6.9477513e-02
 -2.1360917e-01   4.2890187e-02
  2.5284630e-01   5.1596917e-02
 -1.0812788e-01   7.1218312e-02
 -6.4439893e-02   7.0905015e-02
 -1.5214545e-01   7.6758496e-02
  2.1788256e-01   9.2244476e-02
 -4.8371360e-01   8.7111235e-02
 -1.2865666e-01   4.0020164e-02
  5.4029282e-02   2.4120238e-02
  7.4958391e-02   2.1760426e-02
 -2.2226433e-01   6.0302030e-02
  4.8066381e-02   4.2076200e-02
  1.7866962e-01   8.8690944e-02
  3.8694020e-02   4.1296765e-02
 -2.6407057e-01   4.4481635e-02
  4.9632648e-01   3.5138525e-02
 -1.1858070e-01   7.9185344e-02
  1.9200817e-02   6.4095370e-02
 -2.0453790e-01   3.4957655e-02
  5.4285511e-02   7.1411751e-02
 -9.9130973e-02   4.8142459e-02
  1.5843205e-01   8.6553484e-02
  1.8204075e-01   8.4627748e-02
 -1.5226930e-01   3.7517536e-02
 -6.6931136e-02   5.5989798e-02
 -9.5970370e-02   7.9085328e-02
  1.1213794e-01   4.9468379e-02
 -3.3913603e-01   4.8214961e-02
 -1.1234716e-02   6.6338509e-02
 -6.3086979e-02   5.5162515e-02
  4.4404171e-02   6.8925865e-02
 -2.1147807e-01   2.7067291e-02
 -1.0166576e-01   7.8359313e-02
  1.0535555e-01   2.7165895e-02
  1.3348420e-01   4.7476269e-02
  1.1017889e-01   9.1227807e-02
  6.6764556e-02   5.3443737e-02
 -1.4544104e-01   5.7199728e-02
 -2.4898399e-01   7.9396866e-02
  1.9008043e-01   5.3925347e-02
  8.4777072e-02   8.0362171e-02
 -1.5721540e-01   6.6221125e-02