512
Time=20020.00000000 pbc="T T T" Lattice="-0.34661807 17.90092337 16.70185992 18.11037932 0.74058991 17.34806285 18.39044854 17.62072095 -0.74547188" energy=-1093.97089386 virial="-94.30695782 -16.51157938 -32.23146495 -16.51157938 -105.36223050 7.23124837 -32.23146495 7.23124837 -55.65831857" stress="0.00143308 -0.00147936 -0.00288779 -0.00147936 0.00044258 0.00064789 -0.00288779 0.00064789 0.00489582" Properties=species:S:1:pos:R:3
Al 4.49290342 14.00199285 13.72731363
Al 23.62124808 14.65146347 20.91139017
Al 11.15281926 10.40688448 7.42949658
Al 24.41987999 8.32957072 16.95112422
Al 16.22413489 13.38796880 17.56782344
Al 2.61565209 3.56649862 1.72732517
Al 17.29015477 30.39846594 12.45815574
Al 16.40561845 10.87876106 7.31526523
Al 19.00674440 15.89164930 3.00031388
Al 28.42155546 15.51271778 20.42742167
Al 15.44203267 25.41002962 19.89127998
Al 14.41406391 15.61852969 24.12673256
Al 19.33237968 15.68788768 23.40822817
Al 24.24227270 21.66201552 9.73473458
Al 31.16791042 33.24752649 28.37059010
Al 11.25442246 23.72440811 17.62785180
Al 14.37613747 19.43103733 25.76223190
Al 16.96146481 10.34650488 17.41950487
Al 12.94401206 21.24492745 14.82411507
Al 13.27323720 17.61639391 27.21288993
Al 29.19502776 34.32913031 25.12612271
Al 16.16213860 13.44010438 26.28004323
Al 11.81786271 17.91284865 23.87788657
Al 11.20353940 21.30056092 16.86393473
Al 15.54488379 18.03585743 19.23064039
Al 20.45645851 15.97032181 8.30230424
Al 16.83930708 27.73850406 13.06494362
Al 12.47479944 7.39575182 16.54439402
Al 29.01795265 14.32317029 18.25912134
Al 23.38172942 16.53833015 8.95422072
Al 20.19103143 31.84026370 17.47812968
Al 19.51543088 20.77129977 33.46007904
Al 3.98450639 15.86793686 16.41832090
Al 14.22876052 21.58087431 12.41229190
Al 21.69687020 24.07652019 30.63181854
Al 22.14933605 26.32882061 21.37275088
Al 27.40210887 19.08897929 18.14890516
Al 27.24149281 33.36869789 23.83653130
Al 7.29310219 16.54294572 16.73253610
Al 18.26473908 17.14721638 7.21948037
Al 19.79735637 15.63447373 20.88797224
Al 25.79813924 30.64076249 20.86067695
Al 24.10454827 33.95036235 21.19133745
Al 20.58487450 12.00600605 12.02762986
Al 25.85619151 14.55171241 13.50014009
Al 26.65975943 13.10255687 18.99566333
Al 18.60149931 11.77140423 18.42198847
Al 23.24561382 28.89297783 20.22548186
Al 17.70290342 16.60636594 19.54095311
Al 16.40569264 15.95513206 28.54077549
Al 26.02258585 26.11233201 31.74417018
Al 10.28296335 4.52816075 12.69248081
Al 19.52655481 28.02475319 17.58845222
Al 28.32829985 27.14773220 26.80158929
Al 20.64613870 12.23412382 20.87596263
Al 20.18614594 17.16925083 5.19404402
Al 27.84221130 31.91797634 22.05804690
Al 25.75805322 26.21342194 21.46491742
Al 18.24082939 29.88664581 19.06151843
Al 7.87492389 15.70657645 9.93943961
Al 20.93476251 14.03657084 9.95669935
Al 6.59639680 18.67772345 12.05118246
Al 29.22774888 30.39729748 28.66147356
Al 9.94411836 6.03274158 10.27639491
Al 10.03752751 15.22938867 12.31151617
Al 8.76521949 7.74552883 1.73612815
Al 11.61498896 17.86767543 12.92434495
Al 8.28764377 13.14503673 4.55289180
Al 12.76917780 28.91601997 16.21061990
Al 30.34215665 24.53713878 22.95259465
Al 29.04912917 24.48602952 25.42016084
Al 5.21776495 20.06268449 15.95459006
Al 33.93213814 33.20139908 30.62660116
Al 31.38637131 27.18454338 22.39875555
Al 14.04104348 19.15448462 13.33650844
Al 18.14202465 10.93877112 9.57164777
Al 28.20011731 26.79692629 21.04817179
Al 16.79165054 14.20573086 3.03481880
Al 18.04088308 11.46600187 21.07743545
Al 22.07687552 15.72118586 6.45045539
Al 12.44504529 21.59740487 23.57014451
Al 16.45843891 22.70923111 12.78502650
Al 4.71165732 2.15982220 6.15958451
Al 32.08054351 16.44452323 15.09513529
Al 22.76425966 27.71993454 17.44230509
Al 18.20084546 14.82675722 17.79571466
Al 15.33283008 21.74052791 15.43127017
Al 20.18615033 13.06042760 14.27497544
Al 19.24893800 21.69501179 10.72820406
Al 21.72045331 18.95231144 7.38993471
Al 9.31016092 12.57481721 13.17435007
Al 14.84493864 11.53630311 14.36945824
Al 31.52432226 30.36194882 30.32879012
Al 22.44579173 15.98257057 22.69400449
Al 27.25884732 16.05351336 10.68450266
Al 21.77357736 18.19833991 16.72842478
Al 29.36547590 26.09741621 18.30079210
Al 13.11831772 8.90879192 13.16110739
Al 17.70442021 23.65816635 25.66005402
Al 11.95433170 12.51691615 3.68104931
Al 1.54297525 4.51264366 3.88488668
Al 25.77695656 10.61933381 17.60645413
Al 20.57719492 29.26759933 21.05963875
Al 13.64376660 16.99289471 14.46184078
Al 23.43878100 23.17624251 14.49066053
Al 13.55867452 2.49352391 11.18676992
Al 23.33792492 12.30618226 13.29353646
Al 17.94639123 18.03483808 11.00982354
Al 17.29621340 20.16916190 13.43127529
Al 13.75235443 12.86072206 21.69393306
Al 20.46285924 27.21275185 15.39151000
Al 17.51819004 19.46092871 26.62242687
Al 6.76426643 8.34822011 11.82728834
Al 10.09525588 7.13516647 15.61673868
Al 15.15050512 3.27151605 13.28722727
Al 23.48437459 15.75527753 16.84062418
Al 17.33078732 14.43969635 6.07998765
Al 21.83554700 13.50408687 22.87616364
Al 2.42693379 16.70511790 18.02914355
Al 20.40533796 18.79911016 20.93354817
Al 11.37185639 19.69776217 21.86109899
Al 11.57616419 10.98773145 10.37969628
Al 16.27266756 19.78671076 4.63780826
Al 18.72474253 17.11680752 16.41051312
Al 12.21029920 25.96152110 15.20109938
Al 10.10310718 6.47030906 7.95800299
Al 33.20073806 31.09751224 28.43275468
Al 28.57254390 24.24442151 19.68825425
Al 34.21387915 24.54794008 23.92573548
Al 32.62858518 20.91979101 16.69882131
Al 21.40789337 16.08324314 26.50762537
Al 8.45053810 11.75474355 7.94953033
Al 10.79017381 15.21945009 17.15762206
Al 27.83731598 27.75764254 29.61753414
Al 19.11617130 22.68689312 7.87671469
Al 23.90906572 21.57287146 16.53715628
Al 26.61330058 24.20131915 24.85116239
Al 6.67667063 7.44094463 8.65195223
Al 21.92372257 28.86682851 13.93310965
Al 9.06088279 18.50035668 11.20927517
Al 5.87637613 12.83123565 7.65607613
Al 11.48095103 13.06686144 8.19991291
Al 11.22254788 7.37252562 5.88117658
Al 21.71393467 17.47044790 10.85015572
Al 18.10387073 14.10803510 15.40701505
Al 17.35625823 26.10793799 16.93731250
Al 19.52928661 22.99305270 29.58195462
Al 8.32505544 17.07959816 20.70284254
Al 10.46955155 18.59685434 8.04443955
Al 16.10218187 16.08834782 8.84107731
Al 24.19634161 15.40869665 11.11112525
Al 18.94528442 28.85770470 23.88880074
Al 28.66507199 15.49330544 12.95737632
Al 27.47004545 30.58003791 24.76745651
Al 7.52229475 5.72008612 11.24011481
Al 4.57832462 15.84374088 11.65516592
Al 22.95472831 12.44998886 15.84958604
Al 24.02595251 16.55416599 13.60072643
Al 8.23302961 1.66290286 8.58859121
Al 20.17938697 6.90682568 19.40446992
Al 13.67021296 15.90232846 17.44352523
Al 27.76210818 17.43694129 15.11127321
Al 13.77455791 12.72795523 1.11779156
Al 12.98431155 17.33635816 6.65575846
Al 18.89485583 21.51486289 21.17640118
Al 23.89842915 19.32816073 8.70903385
Al 5.30487062 5.33938593 5.40687899
Al 16.50781429 25.47393157 14.65772214
Al 28.50462184 29.44137249 22.54892610
Al 24.75825661 22.99336063 22.10371040
Al 16.90470529 12.51905118 13.57751686
Al 13.18449298 21.10917586 20.29672065
Al 24.87956491 13.43973185 17.47749623
Al 19.65767222 16.91242229 14.11722650
Al 6.39794797 7.24899394 3.81277755
Al 10.61917925 23.09667652 21.93937927
Al 24.83116780 15.32539947 23.36991227
Al 18.61256659 16.04429053 9.86426537
Al 13.99963401 16.61552404 3.81611999
Al 18.46236566 8.45845638 17.98619801
Al 21.32000303 13.75209619 18.33162755
Al 21.26774979 16.52862069 18.78970335
Al 29.00575787 22.24386918 22.25749791
Al 15.63780979 8.02854235 18.96476573
Al 29.81267394 14.13814523 14.91175878
Al 12.57318747 12.79271290 6.20604387
Al 15.01905769 26.65674599 22.55939475
Al 8.61087854 3.02067934 6.33189428
Al 32.65665004 22.68025703 23.46327045
Al 20.86562901 15.44555360 15.68033480
Al 14.80163801 12.57104271 4.69729291
Al -0.03133642 17.67152959 16.39027596
Al 16.31824689 17.10847401 5.49911891
Al 17.20624691 6.72263718 21.86655822
Al 11.24381864 25.53288377 19.46505947
Al 19.87256262 12.67193586 24.43970278
Al 20.60032632 18.99034339 26.41117459
Al 14.03922953 12.12038122 16.98268550
Al 17.65981630 15.53464523 11.89152527
Al 13.10184954 8.83230909 7.27665741
Al 17.03375688 15.76344418 1.01201156
Al 22.52575637 10.08217025 16.66060677
Al 8.51892835 20.93027226 12.83511895
Al 29.17616403 22.09114496 14.51812657
Al 17.21837842 17.47847211 13.94662231
Al 24.24820011 21.08564640 19.75876959
Al 15.12566628 18.41388842 7.85824944
Al 7.80393165 20.66352007 15.54851349
Al 34.09358758 18.57736609 15.36874936
Al 6.59665279 11.00191707 6.19499906
Al 28.56472922 18.78344414 12.52119211
Al 12.23088931 18.72399766 10.64074722
Al 29.75704177 21.97995472 25.07697911
Al 17.28475594 23.21179644 14.90716187
Al 12.26178731 14.05854460 24.50219692
Al 23.19757149 27.42580428 24.75880250
Al 14.64893989 14.85994905 11.06983371
Al 1.36832681 7.56529677 7.14108690
Al 15.07415568 17.37942172 11.27255297
Al 4.69301835 10.07689836 10.93143626
Al 10.22845537 20.71875592 10.71502316
Al 19.38189992 19.51643166 14.97048333
Al 16.31452204 16.72246941 16.63583507
Al 5.15380193 9.85657986 7.78891790
Al 1.53988821 10.76495957 10.40499908
Al 9.10535638 18.32947094 22.81611111
Al 9.21853229 6.57779390 3.83196360
Al 10.95622808 14.17211080 14.75889636
Al 7.77255481 10.97531395 3.74708972
Al 17.22564275 4.25193386 19.66882615
Al 31.34594973 20.07953528 13.60870471
Al 15.16387415 15.33381441 18.97308468
Al 27.51819829 24.24376971 21.93398371
Al 27.08791205 27.90206016 17.37821951
Al 1.35962291 1.12762158 2.05441017
Al 22.04728136 26.46275406 13.15291499
Al 6.95547656 19.29102221 21.63012946
Al 22.19232279 19.40149146 18.98169024
Al 22.87018246 24.00051449 25.06778700
Al 25.00407077 25.87337333 13.68909142
Al 33.89844888 26.11776675 22.22484917
Al 13.58051606 19.13863827 5.15988036
Al 6.86805296 8.80260421 5.72040619
Al 16.13050944 13.38874266 23.70737792
Al 15.05048090 22.94448801 20.88851888
Al 29.40688983 21.05889451 16.91036016
Al 25.30942742 26.14380980 29.18614165
Al 24.78723116 16.87395985 19.94507116
Al 25.60692127 32.56676332 25.54255039
Al 20.54862859 22.69277031 25.55286660
Al 11.69025345 8.38194805 9.62618785
Al 11.54750734 12.38707442 17.87855720
Al 13.30026332 13.68718406 14.84276541
Al 24.08076369 16.74017464 25.62022441
Al 25.92252951 28.40312386 25.78747420
Al 13.59244019 14.88815343 7.97683795
Al 8.65554608 9.03280447 8.04647307
Al 19.00827135 24.86271702 13.38909243
Al 24.19350804 18.71087667 12.12437480
Al 9.63150789 13.37532332 9.89080724
Al 12.42701953 14.98175956 12.85104174
Al 21.68261307 35.01439999 19.78530908
Al 21.60252803 10.72114213 14.39931817
Al 15.14664138 8.88607136 16.04811625
Al 20.49655467 9.04064175 20.80016175
Al 26.83512246 19.63873223 10.76623212
Al 10.75920000 18.22016265 19.59122611
Al 19.55973083 18.69299480 18.46801683
Al 3.12735453 2.59889012 4.40630070
Al 20.23469965 25.94900439 8.95760642
Al 27.27797231 24.03377677 17.26965511
Al 2.85844106 6.71565173 5.59992110
Al 8.18707854 4.93414364 8.84970823
Al 4.21713010 13.45953141 16.53930146
Al 26.62291872 21.53740565 26.12798417
Al 25.57331638 23.00945580 27.86247221
Al 17.71666285 8.89253736 23.49485722
Al 23.27430258 12.11968175 19.95804982
Al 21.50226187 15.46635709 12.89327875
Al 32.41091171 32.10696661 32.69541550
Al 5.67042538 4.86795514 7.83912358
Al 15.43294247 15.17745471 13.91937083
Al 16.04217493 17.38658471 26.50109060
Al 20.88301493 8.40366906 15.49545033
Al 19.94431859 18.62378730 12.25422832
Al 17.21664429 25.91876152 8.81169756
Al 16.09297047 28.25635229 20.92234797
Al 34.52784351 29.00873256 28.02574446
Al 19.26901426 21.63328158 23.96607250
Al 26.61415480 22.84502630 13.77179822
Al 19.91557553 22.75365081 15.21045213
Al 19.47151647 24.53398091 17.45334897
Al 15.90595622 19.35902862 15.92038834
Al 27.43986847 29.42303803 19.27899051
Al 25.16087020 25.68174031 16.21900811
Al 23.67466104 25.98194611 19.24208959
Al 22.45262427 23.12354575 22.78430000
Al 18.87497375 19.32465955 3.87133126
Al 9.15222493 9.94257084 10.92829302
Al 4.87212019 9.31216877 4.39584429
Al 11.99478883 18.16074681 15.97361820
Al 15.99219830 21.79285747 24.41937913
Al 17.75169444 26.64066141 23.46108377
Al 21.88805662 30.06306157 18.16178230
Al 25.11992874 25.90512640 25.62260841
Al 8.71176228 9.98680477 14.56858601
Al 4.12173662 7.66570000 10.84728282
Al 10.60349404 14.37697555 19.78059624
Al 11.93194534 23.59713634 12.50228960
Al 9.13524434 16.20463139 15.33059148
Al 17.48052530 3.23515128 16.32206620
Al 4.22120461 11.86788608 9.30491831
Al 7.21488386 12.93683547 18.49341007
Al 13.15498122 21.10783624 9.33875097
Al 32.35391594 35.47791736 29.47640626
Al 11.42251416 10.62878165 13.05092501
Al 14.10698373 7.00378247 10.54403271
Al 19.71565879 20.74337417 30.41763785
Al 27.70092589 15.06064391 15.70284560
Al 16.22799793 18.73594291 24.09717069
Al 14.06817621 17.56948330 22.37559561
Al 21.59106128 29.28703502 23.49075887
Al 32.01560362 26.06490129 20.15022422
Al 26.86886035 16.28103200 17.62288924
Al 31.14172437 29.30712287 27.34316877
Al 1.73210143 13.53088679 13.21872957
Al 25.66805740 18.90511122 26.25954020
Al 9.55969952 26.73555125 16.01675718
Al 3.07307017 11.71758057 12.28280145
Al 6.03237781 15.45150881 18.32087972
Al 7.68339051 16.84698500 12.96672435
Al 24.41058463 29.93795920 27.78390085
Al 4.07870444 19.43799705 18.55971502
Al 25.60013881 27.80540412 19.24047462
Al 23.77451013 22.51843677 29.77281896
Al 25.98650678 17.03449573 12.80171375
Al 22.23676954 22.31949157 10.37679452
Al 22.41181772 25.25561263 15.57068962
Al 13.29854722 16.93627485 9.41666955
Al 34.51041546 28.19658124 24.27818797
Al 16.12045793 5.94061060 16.82306948
Al 31.03272900 23.10028974 20.68722247
Al 32.28542482 26.91008159 27.51270447
Al 23.96687690 21.41198777 27.53251450
Al 7.80750054 14.34099180 13.73908922
Al 16.82520417 25.46632487 11.69822146
Al 21.63508850 21.06987489 13.84456540
Al 21.38491325 22.29385934 32.25574281
Al 29.46265552 27.90176951 24.84914781
Al 9.30813621 18.37232590 17.19546849
Al 25.04657304 23.73195695 19.00833590
Al 6.23741671 18.23224152 18.17160058
Al 9.71253912 7.62463251 12.54701123
Al 11.08645618 3.60838373 10.55000654
Al 19.94178999 11.37412101 16.45081900
Al 18.33490773 22.16786547 17.26986191
Al 30.54171610 16.43010000 17.26574120
Al 19.05348738 29.70363571 14.67767242
Al 27.81398587 18.84557685 20.56633867
Al 13.62043944 12.20571392 10.46363074
Al 10.71067266 2.75279980 7.85937866
Al 9.73128051 9.98355098 5.14526738
Al 21.73193837 20.30012614 28.38131511
Al 21.48151496 19.05147736 23.32976046
Al 17.20234030 24.34465741 21.48050668
Al 26.69174981 30.28789298 30.00412718
Al 6.11452117 11.81987195 14.97020599
Al 18.31898206 9.74719760 14.92000367
Al 8.33207530 5.69835313 5.92553551
Al 21.28357947 20.02484756 9.93036542
Al 17.84401098 16.73735488 31.36565853
Al 21.64293769 6.43333197 17.23319939
Al 15.70879540 22.60803294 27.35705878
Al 22.56854060 23.30556847 20.05923223
Al 16.50638163 17.25139686 3.07806622
Al 30.98091482 23.17792494 17.92777530
Al 25.63445607 20.30284833 21.83131651
Al 15.44488571 19.13165611 28.29899764
Al 18.23936493 30.17011087 21.38872011
Al 5.53570267 13.92415162 9.98584640
Al 15.55128059 10.82773189 10.77011757
Al 14.95341677 15.21727677 21.23053617
Al 25.57865859 28.57819906 23.15902467
Al 18.79089771 5.52495656 17.61148049
Al 11.42602564 15.82321739 5.61411702
Al 16.73640833 29.25156879 16.69904821
Al 4.90014259 17.91459044 14.12841874
Al 23.98462785 23.82223877 11.78480591
Al 23.35901054 24.71912802 27.70362363
Al 17.13532255 18.48085479 1.24401400
Al 15.89774188 10.90931637 22.19876152
Al 16.98267052 31.66274497 15.84623760
Al 2.56600438 17.91979183 15.01307544
Al 8.61273440 22.32003112 17.31918665
Al 18.78065317 6.85575541 15.15910605
Al 22.73590296 26.97328996 28.37520695
Al 11.42000035 20.44885177 12.97163750
Al 10.25741153 24.26341994 14.99761935
Al 12.57175088 23.20211213 19.82903110
Al 12.80730297 10.06240115 2.22860802
Al 20.39005226 14.51302900 5.44745343
Al 5.78908472 5.73099042 1.71762454
Al 17.13997092 13.95530146 21.84109977
Al 15.01713193 27.64343829 15.29181423
Al 10.40865002 16.38613514 9.13667705
Al 12.13505740 9.88310582 4.96448836
Al 14.72828650 15.16789024 1.96228442
Al 15.70323049 8.50676754 8.59950296
Al 8.97182171 18.88662120 14.30627954
Al 32.99304285 17.93065309 17.52976398
Al 20.17438802 17.06244350 29.77497093
Al 21.20843590 20.98524738 16.42235278
Al 13.76744495 24.07719798 15.26281666
Al 15.23703099 27.41745943 18.03964128
Al 12.95327552 6.17848001 8.09718264
Al 13.19407420 25.88969140 17.56379441
Al 28.24969439 19.86840524 23.06257708
Al 18.67669821 19.37377097 23.91445025
Al 24.18084435 21.12854111 12.98465065
Al 18.46767420 24.10318142 10.32738424
Al 16.21279033 5.66878540 14.21193045
Al 15.95568944 8.44390411 13.71981210
Al 13.56327993 9.91753683 18.03084291
Al 17.62801548 18.63960199 21.20218789
Al 13.13508949 17.30169597 20.01246402
Al 19.94460497 24.30275720 21.07422964
Al 6.96919471 13.82427946 16.05537442
Al 13.13613165 20.02783578 17.93423446
Al 25.95648935 12.25755542 15.63117979
Al 26.84244449 24.10815019 30.65554243
Al 11.99224595 10.36549642 20.87371614
Al 10.33429694 21.48613873 19.49486955
Al 14.71449907 22.63316282 18.19615086
Al 19.72721713 26.99304647 12.16262338
Al 18.81165456 21.55593004 27.89091191
Al 13.67613647 22.19970067 25.80162414
Al 14.29049707 23.48147512 23.01444696
Al 24.20181915 25.42159621 23.19136508
Al 12.92080176 14.10346665 19.58842326
Al 17.27328189 8.84128579 20.37394174
Al 24.56578112 21.47752026 24.20467565
Al 12.06636644 14.42106920 10.37598400
Al 29.60113370 19.04505907 15.44129875
Al 19.20182084 26.71689414 20.48628563
Al 6.51818898 11.91971275 11.80267151
Al 30.03663609 20.88895306 20.08121607
Al 13.98515834 12.23601352 24.11326669
Al 32.24717882 28.31058022 25.30183991
Al 18.43925540 16.42529330 27.33748027
Al 19.23352844 20.38420520 6.32726084
Al 13.55703787 26.81822626 13.18106360
Al 20.88658394 10.81261994 23.51589851
Al 20.76808376 25.34236414 24.31484271
Al 16.88023432 21.49601923 7.11132738
Al 11.76590905 14.93454487 22.22822693
Al 16.77885507 16.74900752 22.50849016
Al 23.46389427 13.66754028 8.69964918
Al 20.15235673 25.53335979 28.55947139
Al 7.53049053 22.00513243 19.97814891
Al 2.16791618 14.60704356 15.46865651
Al 23.34063210 18.92676209 21.15871239
Al 26.14114906 17.52420066 22.27323074
Al 20.98826440 23.76791934 11.91469307
Al 27.90667878 26.43486388 23.53550448
Al 21.84007612 8.91286875 18.71628228
Al 17.00048527 20.06743806 30.68332737
Al 8.71495309 15.22901103 7.31946116
Al 14.45120147 24.26417283 12.95382941
Al 17.72474326 19.64185322 8.74715490
Al 28.81945026 29.75760632 32.10568061
Al 16.81855423 20.67119481 22.32608859
Al 13.77516838 14.93550611 26.68995434
Al 20.33025769 21.24694147 19.34837338
Al 13.61781975 25.01584211 21.31153142
Al 15.98728144 23.27119924 9.81344607
Al 28.51983856 32.41076104 26.43401773
Al 21.61059069 23.16181057 17.72817855
Al 33.12135525 20.13942364 19.42097761
Al 18.57792981 9.61871352 11.64461325
Al 13.20496991 5.08925219 14.05103173
Al 24.48909377 31.86500499 23.06042187
Al 25.11803715 18.72244489 15.59416289
Al 17.31091079 23.63565295 19.29080189
Al 15.23932554 13.33282319 9.03888972
Al 18.68342039 24.09871361 23.49726674
Al 17.44849332 6.82899636 11.99685164
Al 16.08676019 20.70740175 10.57379206
Al 23.15438570 31.49923225 20.92185572
Al 32.17368667 25.51674992 24.65524394
Al 27.52443003 20.27586779 15.86435882
Al 22.01628028 18.77446809 14.47647228
Al 12.61227301 10.31655507 15.51544449
Al 18.45005122 13.37137239 8.86939057
Al 26.81565487 30.69785024 27.54622200
Al 21.41752032 21.61757054 6.09559819
Al 9.13611165 12.40986478 15.79254423
Al 5.12123328 3.55882047 3.42776276
Al 24.08322748 23.83395211 32.18548328
Al 18.82067256 13.80495936 28.08490108
Al 30.41957569 18.38607862 19.40876427
Al 27.99246661 25.30103152 28.61612525
Al 14.15563068 20.06051779 22.60450842
Al 33.64806552 22.94642777 20.31796784
Al 14.91455115 10.99550258 19.88809894
Al 27.17381767 21.65564403 19.40011674
Al 30.64364780 25.15525557 27.78830571
Al 11.73869743 19.07189668 26.29611784
Al 23.06150103 8.93874635 14.14758032
Al 18.14956798 18.59340499 29.10573092
Al 10.20567030 10.08967314 2.67273930
Al 21.18918182 25.83517810 18.68255495
Al 24.29859236 18.42240223 17.91614880