64
energy=-18.155813 config_type=nep2xyz pbc="T T T" virial="-120.01590056 -5.41895947 -7.95857612 -5.41895947 -120.63273603 -10.36529765 -7.95857612 -10.36529765 -83.25262514" Lattice="9.483921 0.0 0.0 0.0 9.483921 0.0 0.0 0.0 9.483921" Properties=species:S:1:pos:R:3:force:R:3
C -0.74025797 -0.0527306 -1.31652946 -4.58724857 -2.73855 4.72902572
C 0.91345334 0.69375831 2.22683413 2.98599235 1.49026441 -3.93745519
C 0.36296862 0.71151221 4.55783017 4.50083761 7.51368181 -4.09790589
C -0.32124886 -0.2054407 5.13478451 -4.87488378 -5.3205245 4.07680592
C 0.532323 2.98087224 0.90659646 -2.03775279 -1.88069672 3.9616356
C 0.38673533 1.8849862 1.80433494 0.10854749 0.53634985 -2.58376344
C -0.56610473 1.80064569 4.20656471 3.25377602 1.17633519 -0.81165051
C 0.13183599 2.24686418 7.00628457 4.36183507 -2.50431255 2.19070583
C 0.20409398 4.11285408 1.88201774 5.69874064 -2.09908368 -0.16605335
C -0.84548207 4.8697184 1.77519085 -4.98540819 4.80751601 -0.18167356
C 0.25342934 4.11397319 4.17543848 0.74134674 -1.31298354 -1.55428584
C -1.00018379 4.38944316 8.99347899 0.21310605 1.21108979 -0.24906957
C -0.55377563 7.98125062 -0.98938161 -1.97469003 0.26517027 2.42113269
C 1.59633358 6.32815577 2.77861814 2.63925648 -2.34031386 2.51808151
C 1.1662757 7.41069793 5.11486827 3.61546295 -2.42648136 0.94652891
C -1.60974385 6.33581878 7.02385828 0.41885783 -0.36081159 2.22319719
C 1.4871452 -0.78850268 -0.24699924 1.81350158 -2.65225059 1.69198604
C 1.93245323 0.40282006 1.19449037 -3.51887621 -3.10481478 0.23822956
C 1.93664512 1.42761463 3.97500529 2.05771579 -1.5623463 0.70373446
C 2.9445014 1.07513522 7.65693846 -1.35352655 2.38490752 1.00811487
C 2.95402326 3.49650354 1.39030488 -3.66792053 0.8781443 -3.15033064
C 4.26176113 3.20944422 1.58962845 1.80320908 1.81623134 2.90234648
C 3.2429604 1.70828179 3.85662699 -4.32679561 0.36213096 1.63483315
C 1.5369263 1.52137267 7.66558779 1.244149 0.33525409 -2.33574869
C 3.16561902 3.52366549 -0.24118559 1.41516095 -0.36112259 2.93040501
C 1.50374206 4.56159529 2.3441123 -0.6684643 1.04828011 1.25979733
C 2.81167909 4.74611446 5.48208569 1.77189132 3.18804408 4.9741553
C 3.77447727 3.93652903 7.04881048 -0.48715864 1.53056127 0.8206826
C 2.00795472 7.03206187 -0.58876182 -1.49404121 5.52469734 -0.41061277
C 2.30890799 7.14108903 1.91335261 4.98205088 -0.30413965 0.49705663
C 1.76642771 6.49188618 4.29881481 -3.42034979 2.29998883 -2.91245494
C 2.21078734 7.17902471 6.73464611 -0.58437186 -1.41333026 -0.20635471
C 5.09953277 -2.36173343 0.02591007 -1.69104907 -4.99854876 -2.77222101
C 5.3097344 -1.88485343 2.60518568 -6.62726044 -1.38795983 -3.51233747
C 5.14675322 1.74611315 5.07836466 3.01720423 -0.95267179 4.87365868
C 4.60158899 0.78638776 6.04511763 2.18650535 3.22594282 -4.2061315
C 4.14364838 2.18557908 -1.14599908 -3.38974386 1.02986123 0.236938
C 4.64720665 3.59036591 3.42014849 1.88468182 7.87350262 -2.5334429
C 4.60391255 2.75747848 4.3779771 -4.88585902 -8.09704283 -0.03118288
C 4.56264801 0.83747764 7.3335652 -3.47551237 0.14405028 2.477235
C 4.05051627 4.43733696 -0.62826235 1.52743156 4.98309429 -5.01017805
C 4.49613727 4.59002809 2.02825031 0.38909925 -2.02645345 1.08516864
C 5.0749789 4.94569409 3.79973295 1.04425213 -1.15759271 1.10260125
C 2.81700905 6.00059062 6.43459382 0.55078926 -2.25198397 -1.57924246
C 4.84028031 5.77580273 -0.67888752 -2.43812851 2.70105735 1.48139675
C 4.01142355 7.15268786 2.02220906 1.4639325 2.18308848 1.05965827
C 5.02181204 5.63949033 5.03358159 0.27121846 0.18957793 -1.3286537
C 4.60805702 7.02695004 7.20477356 -0.91505298 -2.39174967 2.13965201
C 7.50332739 0.24866841 -0.31466701 4.73885182 -1.50702229 -3.5413524
C 8.11324783 -1.56681014 1.97619307 -5.0533863 -1.86577392 0.21752671
C 7.73035349 0.53849703 5.35389153 -1.25077566 -0.96326645 -0.26637616
C 8.19619421 -1.16639899 5.61332419 -1.83276814 3.78553022 -0.54967968
C 5.40760846 1.94737143 -0.79856512 -0.55766696 -1.73022508 -1.30766207
C 7.32875686 2.30778888 2.78265829 1.15876949 -2.22070667 2.32474784
C 7.51554268 1.54652403 4.14093597 -0.18034849 2.02263133 -2.08809967
C 6.84753322 2.14545261 5.34001656 -1.82284874 -4.2126943 0.56255291
C 8.33472584 5.40146288 0.53773832 0.44367752 0.21992555 -3.82042475
C 7.19023471 6.00472561 2.97631048 8.39860437 4.67057432 -14.05868997
C 6.63332938 5.75820057 3.96404188 -6.76852969 -1.45051837 12.92327973
C 8.32947175 4.23030296 7.72320261 0.27091253 0.26369557 -0.02424156
C 8.04749581 6.80189659 -0.17284446 2.20244039 1.41382958 0.50873014
C 6.61997602 7.4290588 2.40275139 5.6296359 -0.63874855 -0.9724671
C 6.51152738 6.9490586 4.93031117 -2.06247984 -3.49577891 1.8945744
C 7.12937639 7.17539237 6.27667705 2.1294537 0.65549078 -4.4164327
64
energy=-14.682382 config_type=nep2xyz pbc="T T T" virial="-79.94485116 -12.06887989 -16.07725889 -12.06887989 -63.08642281 21.58284164 -16.07725889 21.58284164 -64.8850138" Lattice="9.483921 0.0 0.0 0.0 9.483921 0.0 0.0 0.0 9.483921" Properties=species:S:1:pos:R:3:force:R:3
C -0.83568518 -0.15582082 -0.7854204 -0.76084584 -0.16792568 -0.48923872
C 1.29146346 1.25664798 2.07776586 2.36531572 -4.22472293 0.9138752
C 0.42484173 0.61338207 4.84175032 -1.5168736 0.65738792 -3.24812145
C -0.32418887 -0.72580447 5.00865784 3.80001475 5.86553698 -1.28219952
C 0.53894278 3.05196371 0.9032107 -0.59690663 -7.31199761 -1.54725952
C 0.08920576 1.71617241 1.65591157 0.13038409 4.7569812 -1.28612755
C -0.32529849 1.51802485 3.96594815 -1.46359159 0.12267974 1.91765443
C 0.11250775 1.68696193 7.2544124 5.60583415 -1.11063028 2.38879383
C 0.36991085 4.0296801 1.71254955 4.87654521 0.6915867 3.69379015
C -0.80979408 4.54487514 1.89099901 -5.3813992 3.99744392 0.54885947
C 0.31265642 3.99053996 3.94340487 1.68172682 1.4829364 -1.73023817
C -1.1144271 4.25985486 9.14768755 1.61785029 2.13607198 -3.08262687
C -0.40116986 8.1220584 -0.67805293 1.55070049 -3.42316373 0.86609663
C 1.43927037 6.17872711 2.8986751 2.29643488 -1.33400294 0.48018774
C 1.24330411 7.10879628 5.3941982 3.00239489 -0.21515109 -2.37803949
C -1.47379184 6.39268437 6.85308131 0.61962125 0.4973477 1.08970152
C 1.80126215 -0.52056294 -0.09070422 -1.11720609 0.59548841 3.59315225
C 1.60138851 0.11578919 1.36282996 1.66613828 -1.66028104 -4.42451994
C 1.99132941 1.47035866 4.0076774 2.91355397 -0.22283897 -3.75983537
C 2.98140334 0.88605429 7.29559158 -3.21523866 2.25658354 1.95385521
C 3.16863491 3.49807787 1.96890942 -0.90253831 1.98488627 -0.46689356
C 4.27787431 2.7708603 2.05435955 1.74826965 0.45704326 2.02973457
C 3.36276129 1.95419037 3.75788041 -3.89498717 -1.69493013 4.7478577
C 1.5767398 1.47050092 7.91557447 -1.57191251 -2.49489492 -3.74984361
C 3.61121157 3.36118696 -0.22967211 -1.31273821 -1.16088698 0.57893433
C 1.01609781 4.78552015 2.79205686 -0.67878938 -0.92179952 1.73008039
C 2.58803875 4.57522368 5.876797 2.58811455 1.3466158 3.39926061
C 3.63936933 3.78566829 6.9978344 -1.24395953 0.94001327 -1.08980577
C 2.14984366 7.02749062 -0.92634198 -0.13357144 3.35012777 -0.11627117
C 2.55403889 7.48089792 1.93214026 2.6957241 -3.05788352 1.65251597
C 1.86874025 6.42339331 4.17609287 -2.40354788 3.1503864 3.87355755
C 2.39280275 7.35826133 6.34093061 -0.96399898 0.31136616 2.14238399
C 4.89137968 -2.27920435 -0.24038895 -1.6955239 -4.14025706 -2.92607485
C 5.41153481 -2.04483769 2.46063176 -2.15285887 -1.39656803 0.29770859
C 5.28092225 1.85990123 5.25615024 5.22746083 -2.59772393 3.18582816
C 4.78674357 1.00621557 6.33783885 0.54244766 1.58420015 -2.19490742
C 4.19704285 1.98029961 -1.89733427 -0.6360962 10.92112641 -0.46626197
C 4.30552942 3.75282548 3.47202554 0.90777134 -2.39805043 0.35613597
C 4.30944628 2.63417803 4.80586316 -4.07898903 0.41929285 -7.04062862
C 4.34126484 0.67178406 7.6398674 0.72459134 -8.73395535 1.27909507
C 3.73597255 4.59843084 -0.52567477 3.79081134 3.94636607 -1.12646107
C 4.86495747 4.55516519 1.9232064 -0.30975022 -1.01562328 0.42086734
C 4.91139075 4.74352535 4.07347684 -7.72257979 -8.85765439 -9.45560766
C 2.63172169 6.14938386 5.78619711 0.19140714 -7.37203673 -1.87325298
C 4.56217381 5.85660574 -0.30073513 -2.49969344 0.4971093 -1.41913794
C 4.09063326 6.97782333 2.24583991 1.36754786 3.3687142 0.29909344
C 5.26450558 5.4964728 4.83682816 5.80706638 11.50796292 11.07739404
C 4.35696073 7.20017386 7.31691144 0.23013879 -0.02058605 3.22443425
C 7.6721886 0.62548356 -0.51338361 -0.43304649 1.53507931 0.12487138
C 8.04245985 -1.56399341 2.28370921 -1.17551956 -0.66111733 1.43302535
C 7.56875696 -0.11440454 5.5240805 2.66903447 -2.44529518 0.92544772
C 8.32181822 -1.38099167 5.71441331 -7.19880255 0.10400236 2.98131346
C 5.27467234 1.38925217 -0.88238401 -2.22175882 0.70449615 -1.25404235
C 7.05498451 1.90174429 2.76060818 1.39620532 -0.69401175 1.67417739
C 7.66730438 1.6679277 4.05077234 2.59641501 1.41640025 -5.37298692
C 6.90936839 1.96454682 5.09358635 -4.9192739 -1.82738288 2.63739997
C 8.73784939 5.53843915 0.98348261 -4.37284936 2.1416673 -6.13213063
C 6.95714838 5.88499111 2.91744378 1.06370907 0.82521869 -1.89816723
C 6.5785218 5.80498475 4.17910876 3.44783539 -2.57299905 -5.24790904
C 8.5557012 4.39393853 7.74989037 -0.94879515 0.30056794 3.44350051
C 8.08176122 6.33503161 -0.12548176 3.04486912 -0.74549217 2.88889142
C 6.92124225 7.43103146 2.89887426 -2.72840952 -0.35173623 -5.26048659
C 6.33165534 6.53976102 5.12541439 -2.96658109 2.51331099 9.54161872
C 6.95183738 7.05328689 6.38414884 1.05269874 -1.55439915 -3.07201833
64
energy=-33.125782 config_type=nep2xyz pbc="T T T" virial="-27.85917988 -3.78414876 -6.80336661 -3.78414876 -84.22990288 5.49730908 -6.80336661 5.49730908 18.87857154" Lattice="9.483921 0.0 0.0 0.0 9.483921 0.0 0.0 0.0 9.483921" Properties=species:S:1:pos:R:3:force:R:3
C -0.48399294 0.4900911 -0.25789626 0.52355161 -3.08184879 8.27542587
C 1.03790135 0.71754398 1.45248147 0.95668111 -2.88336992 -1.71312452
C 0.7398881 2.45950317 3.77270377 0.60925401 -2.61980316 -0.7172563
C -0.0330894 -0.83295381 6.2269244 -1.36885772 2.32984584 -1.46984485
C -1.15174633 1.45997377 2.78969536 11.40987668 -7.55932198 -5.66995883
C 0.40743873 1.29887988 2.59869868 0.6039575 1.43337292 -2.41739293
C -0.19261844 0.72873501 3.69427175 -1.17326785 -0.18878268 3.07445938
C -0.88400576 0.30844556 6.61303379 2.45308582 -1.48696941 4.24491779
C 2.66972376 4.07782048 2.5516774 0.70500291 -3.6726004 -3.83615898
C 0.65131776 5.83650931 3.03399168 3.81492035 -3.1666143 -0.34328897
C -0.49638843 3.82486534 3.92658039 10.78745682 6.02711769 5.36029324
C -0.75122138 5.21940005 8.56949082 -1.84466514 -3.00820025 -0.47081776
C -1.27087387 7.48440697 -0.3498903 5.33361839 2.78942275 -0.53482375
C 1.79858768 6.68322429 3.73206517 -2.59672525 -0.29569061 -2.75504898
C 1.02388411 8.58396328 5.34018727 2.21159791 -3.14687967 0.54436095
C -2.79796534 6.25997586 6.84669864 4.9309182 0.44828069 1.84984625
C 1.86035646 -0.54360887 -0.39049096 1.75888762 1.54903596 -6.1430221
C 1.74860742 -0.6581936 0.70309048 -5.17938563 4.71659502 22.94600959
C 2.92279271 1.09963219 4.98854245 -1.25115237 -0.11845422 -1.93618359
C 1.78758633 0.47195784 7.14713029 6.02778065 -1.37384237 1.2321016
C 3.24527448 3.40055471 1.03737973 -6.31124101 8.22449126 -6.10707712
C 4.0693134 2.85055368 1.68468579 10.83200721 -4.00707806 5.59277043
C 2.41472009 1.68577644 3.50811186 -0.6442595 0.45511242 4.99502264
C -0.73155173 0.50983663 8.05710302 -2.39354519 0.98950831 -10.1257815
C 3.9095283 5.09440197 -1.61298735 -3.50277012 -1.44771682 0.68253399
C 1.73500748 4.85837563 2.76717105 -3.24806942 8.48415162 -2.26431662
C 3.93177758 4.212293 5.80909129 -3.2341267 1.80474771 -22.40273055
C 4.18427749 3.82900981 6.82022901 3.11789224 -5.11865855 21.80572894
C 2.12981362 8.58529103 -1.48136001 -1.15146362 -3.29553614 -13.87884425
C 2.74696081 6.30988026 2.05667362 -1.30463779 0.55966227 2.6920704
C 1.63729464 7.32970525 4.94494486 2.58371258 0.37409945 -0.65352051
C 1.40976589 7.25038173 7.3963867 0.71290719 -1.7643124 5.2647285
C 5.21547371 -2.47002084 -0.73840861 -3.61337326 -1.80339919 4.51648444
C 5.06543808 -1.95076668 2.30113117 -3.64975745 -1.47743515 -1.81604993
C 5.09333977 1.79119971 3.82257971 3.93505208 5.41511868 0.31000225
C 2.66922111 0.28080942 6.05421271 -1.56267784 3.98849578 -4.41009809
C 4.23202904 2.6767229 -1.36983858 -4.68980612 -1.47150705 -3.54356689
C 2.62851612 3.1442233 3.50286725 4.62165362 -5.82197159 4.47623703
C 4.04978601 2.97890907 4.48080177 -2.13414192 0.72876373 -0.3080124
C 3.27712148 1.59674139 7.88255146 2.4457942 3.91131093 0.82310561
C 3.94292119 4.45818262 -0.38399448 -1.12085121 -1.50855108 1.41964635
C 5.0233674 2.93060746 2.61814072 -1.54246843 -4.3906627 1.34139169
C 6.48797881 5.65669416 4.55028097 0.30911519 0.96315879 -0.40148659
C 3.12597623 6.5026125 5.35307592 -15.83492431 -0.3141245 2.01461137
C 4.36202514 6.39062636 0.2837684 6.32818575 -1.4442937 -13.31187867
C 3.87977724 6.68772915 1.33312632 -3.80139755 3.41945554 12.93457406
C 5.15124859 6.09910011 4.75707787 9.90124566 -2.94112935 -1.75586674
C 2.49801737 6.3671252 8.0987564 0.29938745 0.39421573 -2.68840008
C 8.85393258 -0.83275465 0.58506309 -1.9806497 -0.20806281 -3.39131721
C 6.2834865 -2.26209535 2.25554196 4.21843712 5.53924891 2.12924125
C 8.32070861 -0.76460319 4.94296272 3.67348484 -0.12925555 -3.65221354
C 7.35510319 -0.82591674 5.73652033 -6.48253174 -1.28531239 5.49000766
C 5.32950837 -2.01233629 -1.89687904 4.51216313 1.83513214 -3.2738633
C 7.45481713 1.99307445 3.39681805 -8.37316635 6.95356234 4.54100883
C 8.23773378 3.25386691 3.23532584 -12.40471322 -8.20203586 -6.92672174
C 6.51679096 1.59360221 4.25404122 -6.40068596 0.20937811 -0.21413306
C 9.28223594 4.11051156 -0.1594911 -1.65008443 4.12794479 -2.18210304
C 9.03095945 4.97388979 2.69116691 -1.64666944 3.04325317 4.61457839
C 7.9502951 5.52937252 4.2483319 -4.76002867 0.03471269 -0.27543656
C 7.69744429 5.5507398 7.63023174 -0.04796708 3.00856241 -1.250316
C 9.27862256 7.17756419 -1.66278742 0.75723719 0.18420436 1.14499227
C 6.92387878 8.69514329 2.70356239 -0.63475249 -4.64618939 -1.37684222
C 4.21381991 6.84167216 5.1629233 9.90415579 3.6479911 -1.96906965
C 6.68580392 7.79951973 6.58659262 -2.7442063 -3.71034304 1.87041707
64
energy=-44.516817 config_type=nep2xyz pbc="T T T" virial="-54.68711683 -3.25699262 -13.14944005 -3.25699262 -52.15442152 26.53194836 -13.14944005 26.53194836 -90.95813032" Lattice="9.483921 0.0 0.0 0.0 9.483921 0.0 0.0 0.0 9.483921" Properties=species:S:1:pos:R:3:force:R:3
C -0.06923262 0.0392824 0.25721342 -4.97157257 3.36447855 -5.51998895
C 0.86115899 0.5962636 1.01975861 1.12090421 4.38893002 8.41634831
C 0.49253795 2.18046724 4.02359142 -0.10338013 -1.34981101 -0.09923489
C 0.77420092 -0.95885286 6.53323608 -7.59912688 1.22269067 8.22240721
C -0.96171701 1.21091652 2.45780555 2.13034509 -1.23630497 1.96834643
C 0.46045385 0.89033154 2.47084594 -3.2778182 0.070558 -1.8555911
C 0.02570143 0.77034097 4.00968799 -0.09239324 2.16734938 -3.63187952
C -0.36666735 0.4356534 7.19828656 -1.82982431 -1.33659366 3.32846736
C 2.78546553 4.50280446 2.21394549 -0.42391089 -5.42927226 0.4591177
C 0.90012843 5.86350055 2.83817717 -6.66546933 10.39138924 -0.53958952
C -0.20293694 3.35218672 3.80777531 3.53041397 -2.62882676 0.80706966
C -1.44713254 5.29934002 8.75059578 7.12345835 0.1722073 0.60946996
C -1.33087863 7.61119751 -0.26894503 2.45063587 0.65561949 1.7727846
C 2.03762043 6.3352782 3.77683876 0.67619976 2.40060561 -0.70484963
C 1.30835432 8.23857785 5.4335375 0.49393827 1.71723665 -6.43018819
C -3.02395769 6.27244722 7.05356192 1.62962706 -1.20688033 -3.47199308
C 1.60983869 -0.74798737 -0.6350718 0.99903965 1.35738373 4.18666839
C 1.78428593 -0.27758488 0.76614907 3.93289302 -4.17697765 -6.33156099
C 3.62514345 1.24746755 4.41333315 -1.27443221 -0.0072094 0.34083895
C 3.03429517 -0.0559741 6.68862064 -0.63950098 4.08104279 3.82389217
C 3.65037068 3.98516257 0.88190033 -1.64190287 -2.93310928 2.08401869
C 4.44581558 2.95577779 1.58012556 0.90842054 -0.07431658 3.39555303
C 2.47856585 1.58268622 3.70567142 0.97214193 3.80437248 -0.0639798
C -1.06520555 0.49466235 8.47055456 5.46325619 -0.51698836 -3.18792774
C 4.04601141 4.96441535 -1.25505469 -3.35299018 0.27213956 -3.55339342
C 1.54220885 4.85731343 2.89321236 9.36862587 -10.90269845 -1.53308354
C 3.65229591 3.85151516 5.75631327 1.45271487 -1.0253915 1.97047448
C 4.10601618 3.63846836 7.09402981 -0.57505554 -0.6229615 0.27161355
C 1.7870742 8.62289478 -1.9560018 5.56237673 1.85842588 0.83387553
C 2.04165109 6.8684263 2.36685474 0.77562419 -0.15078935 1.74514781
C 2.29364836 7.84988883 4.76516765 1.24227729 -4.74165317 -0.14943895
C 1.7206014 6.80275963 7.92842518 -0.26162305 1.19979988 -1.74623193
C 5.18076256 -2.47947631 -0.60453358 -3.11145005 0.20428351 -0.63589365
C 4.93759482 -2.03884385 1.62216778 0.92630916 -2.57376372 2.67773844
C 5.27956605 1.67013746 3.94114769 -9.60574012 0.58319464 -3.60179724
C 2.22335354 0.65695121 5.74559644 4.27803418 -1.51494304 -1.21440608
C 4.09914033 2.25386331 -1.68990195 -0.26027812 -0.13712307 -3.18345107
C 2.91707391 3.36435459 3.22736883 2.8854924 -0.45188859 2.17309371
C 3.63783293 3.32906492 4.57548923 -3.05431914 1.87963414 -1.30367065
C 3.85790732 1.0193508 7.43834356 -1.70798224 0.76671252 -1.1678809
C 3.26722975 4.01099677 -0.6602611 2.08470517 1.53504368 4.75691331
C 4.90040837 2.50111861 2.80885288 -1.23018508 1.36913425 -4.28322239
C 6.57382726 5.46836246 4.34787513 -1.67462806 3.97562625 3.91698927
C 3.21073403 6.61665665 5.26249499 -2.35526728 3.8161962 -2.92577728
C 3.9995402 6.63334835 0.16862412 4.14769488 1.45622741 -3.97588458
C 3.90603822 6.57614134 1.57081235 -3.23245195 1.14025333 -0.83829506
C 5.65219879 6.34476212 5.25400688 3.29180896 -4.00775415 -2.71656802
C 3.04591297 6.43723983 7.73461177 -1.91263594 -2.67700713 1.7716458
C 8.93084718 -1.10768404 0.61357175 -6.37668693 -7.84929361 -2.61401247
C 6.09565745 -1.9500459 2.28198314 -0.13757287 2.68816297 -0.56752717
C 7.41562009 0.03142023 5.04089369 -1.30249197 3.44364822 -2.36893259
C 7.48907306 -0.92254842 5.8257166 -1.93533394 -2.00589198 4.72124234
C 5.56493723 -2.1261718 -2.23968485 -2.05652663 -0.18727072 6.53597768
C 7.19326008 2.98973971 3.98509618 -1.4957888 -3.7350602 -0.54390159
C 8.12233343 3.50619611 3.09642434 -0.23015583 1.85237202 -0.42162499
C 6.50805627 1.51800588 4.157732 9.1125455 0.96572028 3.05438514
C 9.32720869 4.64740581 -0.21609114 -6.39182821 3.1028365 -2.00348798
C 8.47663375 4.93268215 2.71867028 -0.57962756 0.64743027 3.35818203
C 7.88725548 5.58473966 4.44082704 -0.30140567 -0.92538094 -3.82123553
C 7.99832168 6.47835263 7.69438098 -0.46420406 -0.00647649 2.51221854
C 9.7612024 7.43877982 -2.01158706 0.43116055 -3.86012793 0.96956859
C 6.86894791 8.4715314 2.72389592 0.36363816 -0.49034971 -0.01373177
C 4.4955872 6.96954386 5.27006316 1.57345584 -2.39864042 0.57783152
C 6.89789284 7.73923044 7.09364097 3.19782316 2.61005053 -4.24164797
64
energy=-29.83207 config_type=nep2xyz pbc="T T T" virial="1.71569459 -18.19882107 1.95070082 -18.19882107 -6.68339311 13.962075 1.95070082 13.962075 -14.01806334" Lattice="9.483921 0.0 0.0 0.0 9.483921 0.0 0.0 0.0 9.483921" Properties=species:S:1:pos:R:3:force:R:3
C -0.21572127 -0.19294089 -0.42288804 -6.58134895 3.40035197 2.93741194
C 0.88997115 0.23179651 0.68178011 -0.77615962 -1.73036118 4.60455897
C 0.72222904 1.44185948 4.31708084 1.61525774 -3.02001605 0.84948232
C 1.00541892 0.27967135 6.98791422 17.29274916 1.57995196 6.42345108
C -1.26028033 1.03601405 2.9272786 2.17099356 1.35925044 -2.15193932
C 0.70346984 0.56727125 2.19144014 -3.00179088 -0.66815404 0.16225331
C 1.13991988 0.03365844 3.60516083 -3.89036576 5.89611435 -4.24738961
C 0.05768121 0.56196025 6.26597919 -11.5447524 6.65640808 -5.99737163
C 4.2505132 3.65521696 2.0637676 -2.20971623 5.39573302 -8.4006089
C 1.86342925 6.25029278 2.50172558 -3.16561617 13.62267196 -1.40136713
C 2.0253672 1.86742198 4.51398601 -2.69623831 1.78792808 -3.43983848
C -0.22801243 6.17319799 9.73431548 -0.62135715 -5.10297168 -3.40128497
C -1.90994788 7.33926504 -0.763541 -0.61528436 5.35778451 8.54628132
C 2.25336066 7.12281351 4.15284778 1.01042428 3.59913585 -3.05476532
C 0.51955764 8.76740128 6.1570848 -0.57563218 -7.11671413 -2.65700205
C -1.60081948 6.00786479 7.30016283 0.11149019 0.57994777 -6.88926035
C 0.4903851 -1.39524601 -0.58733923 0.79120801 -3.62432352 0.84121929
C 1.38496544 -1.12715453 0.87651346 -0.22402418 -3.06955943 -2.23235885
C 4.32050453 1.85115706 4.9934077 8.42717367 0.52546582 -1.64273489
C 3.29187846 0.94285349 7.58438646 1.26529152 -0.76009171 -0.95357742
C 2.67195248 3.70287366 0.59082931 0.05857019 -0.58421228 -0.25974107
C 4.12612209 2.48314658 1.51271385 -1.1252441 -1.41240004 -2.30413746
C 3.42463439 1.04773617 5.28861371 -8.19978068 -9.72774836 2.34571272
C -0.88216588 0.44165672 7.68343653 -0.21517677 0.79596972 2.25762595
C 3.46825094 5.16962843 -1.96015576 2.26642391 0.443656 -0.52300749
C 2.26465601 5.14866897 2.53612377 3.2391729 -13.00184294 2.96559332
C 3.03469349 2.3672341 5.43355647 3.02844774 0.45595914 9.24368334
C 3.30847532 3.59436812 7.43076591 1.66019806 4.8393577 2.3240749
C 0.98775037 8.60390797 -1.71236936 7.36087754 -2.40180965 -5.54160266
C 1.93253858 7.10902389 1.41316113 -1.44693422 4.14692588 -1.54129173
C 2.06519967 8.66575262 3.75532923 3.10797127 -8.88467221 3.32584946
C 1.9489268 7.04903809 7.82584709 -6.5424271 1.76586728 -1.12680051
C 5.01243244 -3.78108756 -1.45496626 -4.41178374 1.25485941 0.93742072
C 5.15658804 -1.26433944 1.08650644 -1.91303032 -3.31684262 1.94815741
C 5.38326324 1.85827948 3.81301044 -16.16434135 7.84356244 1.55757867
C 2.40652599 0.64530495 6.57860716 4.06739089 -0.52248361 2.52238139
C 4.58064849 2.97132193 -2.1997196 0.39298201 -2.42444738 -1.10639922
C 2.63464274 4.82448958 3.8202277 4.59726715 -3.95084725 4.57600272
C 2.71397574 3.16664329 4.60342887 -6.09927381 11.96565253 -11.43496724
C 4.38754637 1.66856313 7.3843516 -0.25302395 0.11826373 2.51858897
C 3.0783385 3.5668363 -0.62597672 -1.90044112 1.08032443 -0.24146029
C 4.68152896 3.14914545 3.03506337 7.3021552 -6.71337989 10.83131289
C 8.21267726 5.00974849 4.56324549 -5.97526337 1.57814628 1.06624689
C 3.56628623 5.80497527 4.60792424 -1.33927072 -0.94389511 -1.90268717
C 4.90295006 6.74244189 -0.55819514 -1.40920406 -2.42060569 0.6865863
C 4.19171289 6.93845557 0.9781811 3.69145883 1.92183397 -3.40510811
C 4.94612087 5.74808123 5.39111592 -5.60621174 -10.75938127 -12.07791748
C 2.82483329 6.53188936 7.00971775 5.14204921 -1.82187224 1.84485619
C 8.22504429 -1.23358309 0.04676521 -0.49102882 -0.20991537 0.62906559
C 5.68030913 -2.9980002 2.14256001 -1.12003627 4.96086656 -1.4034751
C 6.06658923 -0.15893155 5.36425746 2.99083916 0.56617276 -0.86314786
C 7.17654941 -0.62499988 5.93280904 -6.48110187 1.60929458 -5.59939532
C 4.29316239 -2.15710835 -2.65722395 -3.50026564 0.89428409 4.08538128
C 7.17753574 1.8468229 3.0099784 5.19833787 -3.28843555 0.85157174
C 6.4323651 4.1006957 4.03913557 -0.12868334 1.60145902 -0.6518819
C 6.44628749 1.40174249 4.14171366 6.96335186 -5.03730396 0.88914548
C 8.95375085 4.48216745 -0.20638909 0.63861816 5.79223149 1.28089059
C 7.38857195 4.6379124 3.30515595 1.85607628 0.92411227 3.55930997
C 7.44059125 5.7739913 5.82763236 5.061747 -3.10630473 -0.44990163
C 7.60933866 7.42473414 7.48397071 -0.87043819 -1.91216386 -4.18440425
C 9.69068945 6.7511671 -1.32923792 4.22053758 -1.42268763 4.27764733
C 6.03567165 8.05946452 2.05325941 0.77177943 -2.8495245 0.2765545
C 5.04681166 6.73786116 5.9751263 3.54357587 9.18605649 5.68177402
C 7.99418669 9.09996446 6.84916446 1.25083113 -1.70063169 4.23915484
64
energy=-31.410872 config_type=nep2xyz pbc="T T T" virial="-105.71758669 6.00133196 -32.41785361 6.00133196 -102.6615686 -2.59044061 -32.41785361 -2.59044061 -121.62541109" Lattice="9.483921 0.0 0.0 0.0 9.483921 0.0 0.0 0.0 9.483921" Properties=species:S:1:pos:R:3:force:R:3
C -0.72408788 -0.45092251 -1.18359334 0.61990773 -1.26396313 -2.7457379
C 0.51977577 0.22418092 0.45586363 -0.7933293 -1.55883191 3.89606804
C 0.81174777 0.14454444 4.8406407 -1.12917512 0.23350106 2.35751739
C 0.77782378 1.35579289 7.24204537 -3.30795408 2.20723997 -3.15966979
C -1.09273738 1.7887244 1.98145665 3.64688215 -3.30497017 1.45509982
C 0.28726797 0.77087207 2.02741573 -3.13417329 -2.66256767 -2.55919487
C 0.39486305 -0.72404046 2.84353558 4.10919766 3.76483285 1.72514195
C 0.05420061 1.76412311 5.90406328 3.59235063 0.9403944 3.72508683
C 3.75596465 3.16698471 2.65285187 1.98507036 -0.50505314 3.81839839
C 1.83506284 5.30138855 2.00481554 -0.50839971 3.64751865 3.24876496
C 0.90318225 1.76238756 4.71954999 0.24453815 -2.41254107 3.36891758
C -0.97773535 5.6109627 10.44771499 1.80560509 0.4536733 -5.08660773
C -1.31793308 7.03117038 -0.018579 0.37940554 -2.3839119 0.94663076
C 2.68352287 7.03089535 4.04779439 -1.86233349 -3.59573125 1.90281871
C 0.02571091 9.11625783 6.30010233 2.78557101 0.14373902 -0.7984003
C -1.05487756 5.60945475 7.44684116 6.49150356 -0.89380197 -2.90908123
C 1.26343847 -1.92254253 -0.93355925 -0.40726542 0.98875574 -3.88825758
C 0.94400104 -1.50486116 0.5355665 4.74127364 0.86719479 -2.06332844
C 3.601225 1.86758321 5.02376573 -2.4470564 -7.69957298 3.48920941
C 3.5603493 1.07747775 7.40900031 2.89015868 0.85958694 -0.45919889
C 2.43818331 4.67856049 1.12730627 5.00022355 -4.05767617 -0.81919602
C 3.6886952 3.86190005 1.62244282 -3.38412041 3.25303105 -2.90624095
C 3.79249672 0.38317886 5.45838538 1.77729903 2.5144799 -0.65591446
C -0.93211769 0.51824886 7.03948778 2.46573177 0.12324883 -0.04284483
C 4.14537445 4.11600275 -1.89602549 3.65434347 -0.71164439 -1.5557226
C 2.14375499 5.75571578 3.29884914 1.03767704 -0.90707976 1.98107401
C 2.32148367 2.35128215 5.23629091 -2.58999446 -0.51822715 -1.61422801
C 3.1945924 3.51651462 8.27608676 -3.13543231 -1.48845391 0.48506255
C 0.3708308 8.32677831 -1.92181227 -0.16422568 0.17373524 0.28995777
C 2.34011957 7.6425798 1.29781769 -4.73598951 0.65849426 -1.29942942
C 1.37148878 8.73612331 3.97965241 -1.77879992 -2.61399801 -3.70911197
C 2.06364431 6.80078697 7.58744977 -3.15652562 -2.92987029 -0.7349596
C 6.44711259 -5.32388441 -1.74544927 -3.37881627 0.72442305 -3.03154651
C 5.93067516 -1.44859306 1.50751666 -0.18999315 4.24561034 -0.68011497
C 5.45693434 2.11285637 4.51792183 1.70413267 0.31101528 -2.18620399
C 3.1518294 -0.10150641 6.49540472 0.86860326 2.53545916 3.88688761
C 5.36990039 3.2472661 -2.21615524 -1.69682583 -1.65943986 4.04470609
C 2.46751708 4.67148548 4.41435742 0.99821265 4.62046071 0.21342304
C 3.72688695 3.03814564 4.48249939 -1.72716787 4.85142428 -5.07789396
C 4.77853998 1.99978907 7.84280434 -2.53723919 -2.0804704 -3.01366517
C 2.20924146 2.58791546 -0.90928041 2.529889 1.02637184 -1.21976432
C 4.96936596 3.46337621 3.98846298 3.39956503 0.04998658 2.51156864
C 7.95661139 5.08384637 3.95456744 -1.00055082 1.84920328 3.83903853
C 3.29119562 6.16279412 5.307904 -4.32927988 -0.19867393 -2.20638487
C 5.26131898 7.77231036 -1.30827845 -2.06736166 -4.6203095 1.23409531
C 4.96819944 7.49776033 0.30667207 0.96810237 3.81870935 -5.91628864
C 5.6961947 4.61925753 4.89964965 -2.02954537 3.38963224 -2.22941256
C 3.1482919 6.41616656 6.76981249 2.57512305 1.74079598 -0.08176777
C 8.86245862 -0.99291911 0.14019132 -2.23271809 -2.23378845 0.00195269
C 6.06447432 -4.13794854 1.59896063 1.02191621 1.3949918 3.57404744
C 5.97937509 0.29441884 5.46266262 3.14186475 -4.79426249 -1.22489054
C 6.87048431 -0.95703195 5.7158928 -1.04098751 2.7442496 2.63114911
C 4.61006761 -2.83113061 -2.3860502 1.21267624 -0.49802573 2.41277932
C 7.69544318 1.1958845 2.91689371 -3.83807522 -0.67040718 0.73434924
C 5.6481776 5.69830013 3.69394929 1.27304819 -3.5928355 1.91698212
C 6.52837083 0.5653555 3.41222942 1.07809085 2.38107226 1.4875949
C 9.34378658 4.59822219 0.42590392 -3.2529443 3.73670904 2.1159578
C 6.83569729 5.13505954 3.12754108 -2.75567742 3.04228848 -3.47318585
C 7.73004052 5.67073985 5.24391599 1.42858565 -2.61810715 -2.61926762
C 7.62697875 6.55800808 7.95185995 0.85597325 6.52497934 2.66288935
C 10.00184741 5.98207801 -2.22786788 -1.61915732 0.85043775 1.29127455
C 5.44732712 6.86413008 1.34314134 1.77522156 -9.17898438 2.36019964
C 5.59988548 5.27060374 6.71821996 -2.40895436 0.44854228 0.05463558
C 7.93962569 7.81065385 6.93214876 -3.41767481 0.53741084 0.30423225
64
energy=-48.527823 config_type=nep2xyz pbc="T T T" virial="-64.71519598 -5.62603542 6.31577393 -5.62603542 -42.14055243 -23.63869897 6.31577393 -23.63869897 -55.49062625" Lattice="9.483921 0.0 0.0 0.0 9.483921 0.0 0.0 0.0 9.483921" Properties=species:S:1:pos:R:3:force:R:3
C -0.53773832 1.04427454 -2.60755666 1.6039628 2.4376899 -4.05188399
C 0.06670042 -0.3327244 0.48313939 -4.98703801 4.13999346 8.45879709
C 4.09271972 1.47335558 4.28209465 0.6844487 4.90147357 -0.14117153
C 0.72314898 1.20791011 7.34962148 -2.67927776 -0.71270152 -0.9629196
C -0.58830659 -0.702787 3.09258335 5.20678391 -1.24884787 -2.60250685
C 0.95211928 4.27212705 -0.66046974 2.25366853 -2.4433731 -0.33678465
C -0.35552375 -0.01815222 1.74947994 -0.99117501 -4.06044834 -2.52606184
C 0.50065619 2.042002 4.25957034 1.04749931 0.72873114 6.96508349
C 7.21666639 4.03390044 2.54140631 -1.15214434 2.20769684 1.50795783
C 1.74900574 7.45951168 1.34693491 0.88428956 -3.15749968 -1.53729834
C 1.22861351 3.0675458 5.18048752 -1.04558626 -2.45564286 -3.69148626
C -2.03644442 3.33390172 8.02243929 -3.19387209 -1.02468157 -3.63476208
C -2.61847265 5.05311846 -0.06739274 -0.0205536 -1.90614888 4.78670579
C 0.79848924 5.40259147 2.14390673 0.08351061 0.11607193 -0.56687329
C -0.59495482 11.05270379 5.37740217 -2.04622189 -0.17799456 1.007155
C -0.40312355 5.64423229 5.01926087 3.33916441 -2.7263094 1.30559669
C 1.23393399 -2.67157313 -2.37710686 -3.09454778 1.85507355 -0.74676174
C 0.74777872 -0.94879991 -0.33062845 2.78662464 -3.96391594 -6.17968842
C 3.38117906 1.36318087 7.18893541 -7.70149586 0.67968382 3.8943513
C 4.39737171 -0.6785461 9.01519717 -0.58814219 -1.17403493 -3.6230766