  4.5884356e-02   7.3552699e-05
 -2.1597141e-01   1.0105369e-04
 -1.2162830e+00   4.7671064e-04
 -1.3823866e+00   2.8644479e-04
  1.3574179e-01   2.0868055e-04
 -1.7680372e+00   1.7241866e-04
 -7.6014595e-04   1.1599936e-04
 -2.8760595e+00   1.9937621e-04
  1.5164391e+00   1.5905873e-05
 -1.1918932e+00   8.2114479e-05
 -4.0471509e-01   4.5060084e-04
 -4.4469528e-02   3.5589086e-04
  3.7453288e-01   2.1388390e-05
  3.7093235e-03   6.9300215e-05
 -1.1778332e-01   6.9073183e-05
  1.6231825e+00   3.1111145e-04
  2.1026044e-01   1.8676155e-04
 -1.2798530e+00   1.0563627e-04
 -8.6861420e-01   2.3825713e-04
 -2.2401521e+00   1.1260108e-04
  1.6650695e-02   3.0526713e-05
 -1.8709564e+00   1.5087641e-04
 -2.3818471e+00   2.2998978e-04
 -9.7328641e-02   3.4136645e-04
 -2.9802241e+00   8.6602384e-05
  1.8234110e+00   2.9599696e-04
 -3.3363667e+00   1.1919277e-04
  4.3490875e-01   4.5694990e-04
 -1.8787017e-01   3.6170164e-05
  4.4817778e-01   5.9391139e-05
 -2.3474205e+00   6.0039332e-05
  1.2203829e+00   8.8383189e-05
 -2.6403075e-01   7.3164418e-05
 -4.7928259e-01   1.2613824e-04
  1.9961009e-02   1.7767011e-04
  4.3560240e-02   1.1751701e-04
 -1.3005637e-01   4.9976570e-05
  1.1100630e+00   4.1918440e-05
 -1.1487799e+00   9.1997681e-05
  2.7062550e+00   1.2059460e-04
  3.1495985e-01   8.9046436e-05
 -3.7576011e-03   6.2885863e-04
  1.3727292e-01   4.9578168e-05
  8.4773743e-01   1.4765506e-05
  9.0854961e-01   1.2599841e-04
 -2.2300687e+00   1.3173514e-04
 -8.2330912e-01   2.1801506e-04
 -1.0155985e+00   5.8566988e-05
 -5.0859316e-03   1.7222845e-04
 -1.8143499e+00   8.9819790e-05
 -8.8533312e-02   1.8672615e-04
  1.5985047e-02   5.7327888e-05
 -7.9046167e-02   2.7744221e-05
 -2.6935687e+00   8.1632315e-05
 -4.6416846e-01   7.8056873e-05
 -2.7607398e+00   4.8160861e-04
 -1.1088493e+00   3.3866803e-05
 -2.7319047e+00   5.5996508e-05
  2.2255278e+00   3.1100330e-04
 -7.9676390e-02   2.0144467e-04
  4.5128196e-04   1.2555906e-04
  1.7034746e+00   3.7119162e-04
 -4.1394159e-03   8.0492355e-05
 -1.0002451e+00   4.2454977e-04
  1.3813050e-01   1.4752039e-04
 -4.4373289e-04   2.0636774e-04
 -3.0485272e-01   4.7748207e-04
  1.9800698e+00   3.4869174e-04
  3.1983224e-01   7.6240765e-05
 -1.7752850e-02   4.2346513e-04
 -1.3146045e-04   2.5481469e-04
 -5.2986536e-02   1.0544375e-04
  1.9403346e+00   4.5985526e-05
 -1.2909675e-01   1.2907340e-05
 -1.6447946e-01   2.4642883e-04
 -2.9354820e+00   2.2585702e-04
  2.6043318e-04   4.0907954e-04
  9.9014744e-02   1.5472392e-04
  1.7010245e+00   4.2975415e-05
  7.5819474e-01   1.9285279e-04
 -6.4863348e-01   1.3642301e-04
  6.7848498e-01   3.9122555e-05
  1.5569016e-03   2.3868795e-05
 -3.7054438e-02   5.2163319e-04
 -1.9581141e-01   3.4875734e-04
  9.0798670e-01   9.5226978e-06
 -8.8211047e-03   1.6021579e-04
  1.3775283e-01   2.5270614e-04
 -1.1975472e-01   1.8297888e-04
 -1.0641479e-01   2.3982444e-05
 -1.3057492e+00   4.9494156e-05
 -1.6273499e-01   7.7078228e-05
 -1.5224998e+00   1.9438899e-04
  9.7919174e-02   2.4966281e-04
 -9.7126521e-02   3.4091523e-04
  2.7238934e+00   5.3285534e-04
  1.3593853e-01   5.8220416e-05
 -1.2560301e+00   1.2088495e-03
  4.9684629e-02   1.1387949e-04
 -8.4691033e-02   1.4442888e-04
  1.5173541e+00   6.6388762e-05
 -5.2209622e-01   4.7210458e-05
 -8.3764488e-01   1.8077462e-04
  1.3263747e-01   8.8799774e-05
 -2.1153886e+00   5.5564463e-04
  9.8900390e-01   3.5133580e-05
 -2.3669262e+00   1.8110203e-04
 -9.9522686e-01   1.1547106e-04
 -1.8722718e+00   3.0828714e-06
  8.4689605e-01   5.0142386e-05
 -2.2242515e+00   2.4266154e-04
 -1.4461309e+00   3.8068235e-04
  1.0081668e-03   4.1261465e-05
 -2.4720214e-03   5.9137208e-04
  1.1719074e-03   4.1689505e-05
 -1.5625792e-03   2.8838546e-04
  1.3983406e-03   2.6087221e-04
  1.2243231e-03   1.6684081e-04
  4.3209610e-04   3.0161501e-04
 -1.9930000e-03   9.4696014e-05
  5.6261738e-04   2.3189667e-05
 -1.1369897e-03   2.5542601e-04
 -4.0603449e-04   2.6405240e-05
  2.6460277e-04   3.5584239e-05
 -8.9974616e-05   5.5447443e-05
  1.5632632e-03   4.2092921e-05
  1.7713736e-04   7.0550966e-05
 -3.7910827e-04   1.0172609e-04
  5.8135984e-04   8.0883881e-05
  3.0456688e-03   8.8064844e-05
  5.5568248e-01   5.6956941e-04
  6.9103873e-04   1.8813490e-04
  4.1688694e-05   2.0907266e-04
  7.9832913e-05   1.6399073e-04
  4.9513072e-04   2.1087228e-04
  8.0738202e-05   6.1424376e-05
 -3.6079076e-03   3.8382295e-04
  4.8722414e-04   1.1189656e-04
 -8.2064880e-04   1.4824746e-04
  2.7668679e-03   7.3645671e-05
  1.9297572e+00   5.9525692e-04
 -3.7220469e-01   4.4149073e-04
  6.0548959e-04   8.5344967e-05
 -6.3639990e-04   1.1646664e-04
  5.4128128e-01   1.6777239e-04
 -6.1507672e-01   4.8547812e-05
 -6.3597947e-01   5.3032907e-04
 -2.8774124e-01   1.6601667e-04
 -8.1821394e-01   1.8169823e-04
 -2.4184491e-02   1.9688524e-04
  1.9194250e-03   3.0134429e-04
 -9.6995473e-02   2.2208800e-04
 -1.3127643e+00   7.0952234e-04
 -3.9072687e-04   1.0197850e-04
  9.6850729e-01   2.8005475e-04
 -1.7480204e+00   1.6439121e-04
  6.6266000e-01   1.4896382e-04
 -3.1867986e+00   6.6026820e-05
  1.3019412e-03   6.8169385e-05
  5.2567355e-02   3.6805373e-05
  1.6130439e-03   4.2346888e-04
 -5.9165502e-01   6.6123612e-05
  6.0103009e-03   1.1609950e-04
  6.4964980e-01   2.7831307e-05
 -3.9489260e+00   2.2389065e-04
  4.8301423e-01   7.7820718e-05
 -7.4891442e-01   2.0748589e-04
 -3.7898528e-04   7.6470067e-05
  5.9900850e-02   2.6680895e-05
  8.7221980e-02   6.5596483e-05
  5.0205431e+00   5.2718300e-05
 -1.2463684e+00   1.5697475e-04
 -4.4503784e+00   9.8610908e-05
 -2.3277864e+00   6.9176014e-05
  8.5012114e-01   1.9569430e-05
  4.9159513e-03   9.4303294e-05
  6.5645456e-01   9.3498556e-06
  2.7869713e+00   2.3057302e-04
  1.2831918e+00   1.4191633e-04
 -2.1534915e+00   5.7064290e-06
  8.2302946e-01   7.3336727e-05
  3.8579121e-01   8.7356492e-04
  6.5188748e-01   1.6842886e-04
  1.3402025e+00   9.1164156e-06
  7.2042203e-01   7.4110743e-05
  2.8519490e+00   1.0361771e-04
 -2.8481426e+00   1.0399498e-04
 -4.2717639e-01   9.0742404e-05
 -3.0107963e+00   1.1824497e-04
 -6.2534019e-02   3.2893819e-05
 -1.4999825e-02   1.4088568e-04
  1.1651683e-01   5.0733022e-05
  2.1865637e+00   1.7873496e-04
  1.6014725e+00   1.4446532e-04
  5.4948080e-01   5.5336055e-05
 -5.1953363e-01   7.4348279e-04
 -2.3759632e+00   7.9573372e-05
  2.0827508e+00   1.3853276e-04
 -3.0733304e+00   5.0739094e-05
  1.2855574e+00   6.4592408e-05
  2.4247742e+00   4.6707071e-05
  3.4933649e-02   1.5245726e-04
 -7.7906531e-01   2.1850046e-04
  1.1735333e-01   2.9254705e-04
  1.3099734e+00   3.9044244e-05
  7.9778183e-01   2.5757882e-04
  1.4036890e+00   3.9837611e-04
  2.7031596e+00   1.8063921e-04
  8.2333112e-01   2.0301869e-04
 -1.4990978e+00   1.8028179e-03
  2.9408591e+00   3.7782604e-04
  1.5078096e+00   5.7904795e-04
  3.4396713e+00   6.6352084e-05
  8.4040904e-01   5.4685439e-05
  1.8368566e+00   3.5653717e-04
  7.3391847e-02   1.6493805e-05
 -5.9884906e-02   4.3672312e-04
  5.2663244e-02   5.0741044e-04
  8.6934611e-02   2.5882432e-04
 -1.3879144e-02   9.8210066e-06
  1.8326912e+00   1.7248199e-04
  5.5194920e-01   4.2885006e-04
 -5.4857618e-01   3.3245471e-04
 -6.8528336e-01   5.4547557e-04
  3.6209530e-01   3.4640092e-05
 -5.9919700e-04   3.1611809e-04
 -1.1206913e-03   1.1201125e-04
  3.3255632e-04   3.7586261e-04
 -4.3059930e-01   5.0734328e-05
 -2.5336328e-01   1.1057840e-04
  3.4724784e-04   1.1982904e-04
  1.8757042e-04   1.7679343e-04
  2.2355220e-03   8.1913779e-05
 -1.1263734e-02   1.1911022e-04
  6.1657041e-04   1.9828809e-04
 -7.1284454e-04   8.4187275e-05
  2.5956449e-03   4.1809981e-05
  1.3548275e-04   2.4386944e-05
 -3.4832885e-04   1.3921416e-04
 -1.2444379e-03   2.5759672e-04
 -2.2283487e-03   1.3990012e-04
  5.1038871e-03   4.7178390e-05
  4.7114509e-04   2.6758166e-04
 -2.9867478e-03   3.7203147e-04
  5.8226855e-05   8.2196631e-05
  1.2695581e-04   1.6569273e-05
 -8.9002913e-04   2.2230448e-05
  3.5425319e-04   7.7967845e-05
 -4.0451152e-04   7.0359274e-05
 -4.7308832e-04   1.7033119e-04
  6.3663312e-05   2.1214357e-04
  1.0612855e-03   5.0618666e-05
  7.8414714e-01   7.1120550e-05
 -4.8493993e-01   2.5192817e-04
  8.8746492e-06   2.4602123e-04
  3.0545564e-03   3.5151646e-05
 -7.9664279e-04   7.8663914e-05
 -7.0091151e-04   4.0095551e-05
  4.8174523e-03   2.9221075e-04
 -2.3364734e-04   3.1220705e-05
  7.4535108e-01   2.4548606e-05
 -2.2108021e-01   1.2869756e-04
 -8.0978639e-02   3.6056279e-04
 -5.9609964e-02   1.3128230e-04
  1.8195556e-03   1.3356995e-04
  2.9968223e-01   1.1188105e-04
  2.9464132e-01   8.9572670e-05
 -1.4469776e-02   8.3148050e-05
  3.0025249e-02   2.5805506e-05
  2.5522453e-01   4.2954573e-05
  1.2934890e-01   1.2345408e-04
 -1.4991653e-02   7.2888703e-05
  9.4678111e-02   1.2579380e-04
 -9.5019750e-05   5.3394200e-05
 -5.2466447e-04   8.7824723e-05
  1.3344561e-01   1.4820122e-04
 -1.7463084e-02   1.8629697e-05
 -9.4622843e-02   1.8446980e-04
 -2.3685776e-01   6.8665744e-05
  6.3511318e-01   8.9971509e-05
 -5.4176074e-01   1.4248672e-04
 -1.4709158e+00   1.4283001e-05
  3.2485706e-01   8.0676873e-05
 -6.5336907e-01   3.0867453e-04
  4.6470246e+00   1.2924375e-04
  7.3585874e-01   1.2405560e-05
  1.8663470e-02   8.8775530e-05
 -8.5860038e-01   1.5721191e-04
 -1.2020296e+00   9.8184952e-05
  2.3642285e+00   2.4963936e-04
 -7.4771851e-02   9.8238364e-05
 -2.1896014e+00   6.1715036e-05
  2.7011051e+00   2.3644553e-04
 -5.0967420e-03   1.5007943e-04
 -1.2039789e+00   4.0047144e-05
 -4.9269018e-01   2.0901220e-05
  1.6956356e+00   6.7265362e-05
  3.8111782e-01   6.3233078e-05
  1.3351163e+00   4.6143792e-05
 -2.6253889e+00   6.7964043e-05
  2.0031044e-05   6.1207051e-05
  1.4720669e+00   4.2514152e-05
 -1.3239467e+00   7.4103540e-05
  1.1375365e+00   8.6646098e-05
  7.3189074e-01   8.1363360e-05
 -1.1571038e-01   2.4711244e-05
  9.4612241e-01   1.7188520e-04
 -1.2076565e-04   1.0253254e-04
  3.1236252e-03   1.1605147e-04
 -1.9736777e-05   8.7488610e-05
  1.5980030e-04   2.2415609e-04
  7.0034445e-04   4.4575303e-05
  2.4605278e-04   1.6096850e-04
  2.3340940e-04   1.1680532e-04
 -4.2688174e-05   7.5771255e-05
 -7.8689627e-04   8.0519938e-05
  6.1173152e-05   1.4885564e-04
  6.5829925e-04   1.2804146e-04
 -2.0369457e-03   1.3973676e-04
  5.0626916e-04   2.6475789e-04
 -2.0138198e-03   3.5061468e-05
 -1.8741217e-04   2.0708952e-05
 -2.2279580e-04   1.8044341e-04
  1.6480783e-04   1.1042738e-04
 -1.0082595e-03   1.1681284e-04
  1.5307801e-04   1.8577215e-04
  2.8354658e-05   5.0845447e-05
 -5.1473593e-04   1.8118760e-04
 -6.3310377e-04   6.9339359e-05
  2.8666444e-05   2.2935020e-04
  3.2784630e-04   7.9300502e-05
 -3.7819694e-04   2.1255940e-04
 -2.6721656e-04   2.5393782e-04
 -6.8938651e-05   3.5216019e-04
  1.5569219e-03   2.5885247e-05
  4.3371544e-04   2.6040326e-04
 -4.2845199e-01   1.6084315e-04
 -5.1376406e-02   8.5388187e-05
 -1.7594895e-01   7.0332331e-05
 -2.2428662e-02   2.6752456e-04
  3.5113493e-01   1.6088159e-04
  2.1310484e+00   1.3213720e-04
 -1.9052918e-03   2.2859409e-04
 -4.5110002e+00   3.7203133e-04
  1.4675492e-01   1.6263533e-04
 -6.9239861e-01   6.5529370e-04
 -9.4009745e-01   6.3917495e-04
 -4.8712292e-01   1.5188189e-04
 -2.4631603e-02   5.5737059e-05
  1.7015241e-01   1.1591487e-04
 -2.1052322e+00   2.0379273e-04
 -8.7530684e-01   1.2448543e-05
  3.4552947e-01   1.7195303e-05
 -5.8374995e-01   2.0667114e-05
  9.3646383e-01   1.8312089e-04
 -1.0331150e+00   1.4059120e-04
 -1.7474425e-01   2.4667609e-04
  1.3757278e+00   3.5778328e-04
  1.1479656e-01   3.4371333e-05
  3.4319854e-01   1.1563494e-04
 -2.7229815e+00   3.1021718e-04
  9.4374996e-01   3.3731351e-04
 -4.9809465e+00   3.3140317e-05
  1.9675833e+00   4.7051528e-04
  1.5055522e-03   1.6615406e-04
  1.9895590e-03   2.4976817e-04
  7.0744992e-04   7.4859825e-05
 -4.1309686e-04   1.9342467e-04
 -7.2611118e-04   8.3863517e-05
  1.4782366e-03   2.7247009e-04
 -7.6344972e-05   3.6877089e-05
  1.6077830e-03   2.1561149e-05
 -9.4264717e-05   2.6880731e-04
  8.1462192e-04   7.7428776e-05
 -1.6412140e-03   2.0852026e-04
 -2.1332692e-04   6.6093315e-05
  5.2979711e-04   6.1840714e-05
 -1.7180631e-03   6.5186287e-05
 -1.1247082e-03   5.0855533e-04
  1.7007797e-04   1.4922916e-04
  7.7797141e-04   4.4740058e-04
 -2.8976690e-04   9.2366485e-05
 -2.0195750e-04   4.9671373e-05
  7.5140083e-04   1.8208451e-04
  1.1362715e-03   2.4367217e-04
  3.1587132e-04   2.0857903e-04
 -4.7676856e-04   1.7043181e-04
  1.0863463e-03   1.9424527e-04
 -1.7078963e-04   1.1365316e-04
  1.7813199e-03   2.3894818e-04
  4.2205672e-03   7.5134725e-05
 -2.1602469e-03   1.5160973e-04
 -2.5320341e-04   1.2464094e-04
 -2.1647743e-04   4.4622062e-05
 -3.4089957e-04   1.5312283e-04
 -6.5946899e-04   5.1849956e-06
 -3.3054952e-04   3.4805390e-04
 -2.2215751e-05   5.7570178e-05
  6.6737866e-04   7.4694573e-05
 -8.0223446e-04   5.6463963e-05
 -6.5414107e-04   7.5906231e-05
  7.1413524e-05   1.3452464e-04
  4.5403818e-04   1.0239871e-04
 -3.1451619e-04   2.1716367e-04
  2.8592334e-04   1.3479411e-04
  1.9091426e-03   1.7241990e-04
 -1.4691683e-03   1.6887953e-04
  1.6212484e-03   9.0007379e-05
 -6.1285164e-04   3.1617867e-05
  8.7170985e-05   4.8689031e-05
  1.1101931e-03   5.0383995e-05
 -9.5466225e-05   6.9885376e-05
 -1.6010087e-04   8.6892054e-05
 -2.6982403e-04   1.1534052e-04
  5.8292766e-04   2.8264543e-04
  1.9418540e-04   1.4678140e-04
 -4.7093062e-04   8.8262939e-05
  5.5962498e-04   1.6396194e-04
 -9.1786584e-05   9.9799865e-05
  1.4470796e-04   1.9961053e-04
  2.1014644e-03   2.8288012e-04
  2.0990157e-04   1.6827427e-04
  1.7970774e-03   4.7678106e-05
 -1.2158471e-03   1.2438135e-04
 -2.6499415e-03   1.5860640e-04
 -9.4671897e-04   4.8989252e-05
  1.1010559e-03   6.8832502e-05
  1.8295365e-03   1.2031095e-04
 -6.8723719e-04   1.2516334e-04
  1.8307351e-04   1.0388578e-04
  2.4919061e-03   1.1827909e-04
  1.9251369e-04   3.4660572e-04
  3.9265878e-04   1.9086266e-04
 -8.9240470e-04   2.3899938e-04
  8.9359455e-05   5.5766181e-05
 -2.3295668e-04   2.1733360e-04
  9.2306669e-04   3.9575960e-05
  5.6700088e-04   2.2984302e-04
 -4.1205352e-04   1.7493805e-04
 -3.2073361e-04   9.2611102e-05
 -8.6628005e-04   1.8668464e-04
 -3.8976307e-04   1.1263142e-04
 -6.3126408e-06   3.4028743e-04
  5.8048306e-04   1.8374038e-04
 -7.3038705e-04   1.3422084e-04
 -2.8364590e-04   4.9347658e-05
  9.3526696e-04   2.3556758e-04
 -1.6142093e-03   3.6416511e-04
  1.5264329e-03   2.5239540e-04
  7.5068639e-04   5.2408104e-05
 -3.2388762e-04   1.2970855e-04
  3.2509814e-04   4.1164705e-05
  2.1487072e-03   1.9640414e-04
 -1.3263810e-03   1.5681107e-04
 -5.5077631e-04   1.6977437e-04
 -3.5443026e-04   2.9373242e-04
 -1.2037090e-04   2.9246518e-04
 -1.7851364e-04   2.6609009e-04
  6.2731479e-04   1.3405054e-04
 -5.3809554e-04   1.2160382e-04
 -4.9458176e-04   2.0563192e-04
  4.7363873e-04   8.0404359e-05
 -3.9032919e-04   2.4628522e-05
  1.2896368e-03   2.7528768e-05
 -7.1262778e-04   8.9286150e-05
  1.5135686e-04   1.5732556e-04
 -5.4325367e-04   5.4751796e-05
 -2.3911295e-03   1.9798469e-04
 -5.0455920e-04   1.7119700e-04
 -1.6137409e-04   2.1321404e-04
  1.9612315e-04   4.0080951e-04
  9.9290733e-04   3.6684616e-04
 -1.8705875e-03   1.6566733e-04
 -1.3090001e-04   1.1764051e-04
 -6.4773858e-04   3.6154964e-04
 -6.3003850e-04   3.0776762e-04
  2.7045265e-02   4.6806872e-05
  2.3970659e-01   1.7571352e-04
  1.0238192e+00   2.3793703e-04
 -9.9452609e-01   2.0278676e-05
  6.5296181e-03   1.9296991e-04
 -8.3799601e-01   1.3660785e-04
  1.5785903e+00   2.4949084e-04
 -5.3186197e-04   3.7136985e-04
  2.4480821e-01   1.1117121e-04
 -2.3795369e+00   5.9557403e-04
 -7.1003181e-01   1.7552070e-04
  2.2549111e-02   3.0189386e-04
  3.9411683e-02   2.3288715e-04
  3.2656997e-01   1.0182649e-03
 -2.2944911e+00   1.0223910e-04
  2.7476838e+00   1.9323391e-04
 -1.1245022e+00   1.5983434e-04
  6.8121040e-01   3.0012388e-05
  4.0745035e-01   8.5558277e-05
  9.4518936e-01   2.5231406e-04
  2.0827801e+00   4.2599902e-04
 -3.1694129e+00   9.6357701e-04
  9.7584373e-01   2.0035330e-05
  6.7088181e-01   9.0990623e-05
  2.3758552e+00   3.4146095e-05
  3.0915037e-01   2.3978825e-04
 -1.5399493e+00   1.4909879e-04
  9.2951834e-01   8.9723989e-04
 -2.1746080e+00   4.3858882e-04
 -3.1185780e+00   1.5305453e-04
  6.0425300e-02   1.2069010e-04
 -6.4046383e-01   2.1132827e-04
 -3.5158239e-02   5.6266336e-04
  2.0487860e-02   2.2563570e-04
 -5.6292218e-01   1.2083384e-04
 -1.9616382e+00   2.0556936e-04
 -7.9441077e-01   1.1879163e-04
 -8.0756017e-04   2.8834766e-04
 -9.9898237e-01   5.5485747e-05
  5.5889237e-01   1.2658571e-04
 -5.8695567e-01   5.0259787e-05
 -1.3922950e+00   5.7847437e-04
 -1.0958441e+00   3.5617655e-04
 -5.8540267e-01   6.9937384e-04
 -3.8570997e-01   2.3406756e-05
  1.3094991e+00   1.1859566e-04
 -8.3275592e-01   4.7294213e-04
  5.4200804e-01   1.5525598e-04
 -1.2523945e-01   1.0301415e-03
 -1.4275315e+00   1.3333809e-04
  4.2663035e-01   5.9963502e-05
  3.8142583e+00   2.4354911e-05
 -1.3861468e-01   6.0483548e-05
  5.3482908e-01   6.4737069e-05
  5.2825570e-02   3.7903391e-04
 -2.4885941e+00   2.4389368e-03
 -1.9235804e-03   1.4596825e-04
 -2.8510665e-05   1.6343828e-04
 -2.6597918e-04   4.1544248e-04
 -7.1194267e-04   2.0970769e-04
  2.5173422e-04   2.9172184e-04
  6.4975407e-05   4.0108195e-04
  1.4854124e-03   5.1557294e-05
  4.6622776e-04   3.5722501e-04
  1.5953367e-04   7.2044168e-05
  3.4696364e-04   2.5997974e-04
 -1.0091955e-03   3.7435853e-04
  1.1465651e-03   6.2702842e-05
 -1.9156256e-03   5.2985153e-05
 -1.1327774e-03   1.3726598e-04
  5.9881940e-04   2.5222724e-04
  1.1376692e-04   3.0191676e-04
 -1.1840594e-03   1.3410764e-04
  2.5430000e-03   1.1756506e-04
  1.2795365e-03   3.0806754e-04
  1.6346974e-04   7.6899756e-05
 -1.9029534e-03   7.5638396e-05
 -4.7964675e-04   1.0081616e-04
  2.4685974e-04   1.2410370e-04
 -6.9314046e-05   1.1869569e-04
 -5.0482275e-03   1.3371097e-04
  1.0835927e-04   2.9523822e-04
 -3.1834593e-04   2.5887947e-04
  5.7205663e-04   1.2998130e-04
  3.2611458e+00   1.5958337e-04
 -3.9617224e+00   4.8886010e-05
 -3.4224935e+00   2.4531908e-05
 -2.5635209e+00   6.9120815e-06
 -4.2979845e-01   1.3738884e-04
  1.4650191e-01   2.4234241e-05
 -2.7585623e+00   9.9179408e-05
  5.4608303e-01   6.3237856e-04
  2.5706055e+00   8.8319612e-05
  2.4883928e+00   1.1763538e-04
 -1.0664638e-02   4.4732053e-05
 -2.3545835e+00   2.5734413e-04
 -1.3284581e+00   1.1951345e-04
 -3.1589496e-01   1.9379142e-04
 -1.4383961e-01   1.9052754e-04
  2.5257340e-01   2.8733382e-04
 -7.9148695e-02   1.2049900e-04
 -6.0476589e-01   4.8906557e-05
 -1.6838565e+00   9.6878830e-05
  2.0457323e+00   1.4552242e-05
 -8.3025068e-01   5.0375634e-04
 -2.8971592e-03   8.7122273e-05
 -1.6823901e+00   4.4839511e-05
  2.4627915e-01   1.1189682e-04
  4.2433457e+00   2.1621061e-04
 -1.8064097e-01   2.1679958e-04
 -3.6962514e+00   5.1057879e-05
  2.0137475e-01   5.6021356e-05
  1.3625509e-02   7.7098393e-06
  1.1318954e+00   1.0625212e-04
  2.4037232e-04   7.8018929e-05
 -1.9954602e+00   2.1151871e-05
  5.9203756e-01   3.0024967e-05
 -2.4840784e-01   1.3629076e-04
 -9.3896788e-01   1.5876394e-04
 -2.1243548e-02   7.3324576e-05
 -1.3253057e+00   1.5900753e-04
  7.1543866e-01   2.3272978e-04
  3.9301363e-01   5.4983055e-04
  4.8124930e-01   2.1085335e-04
 -1.2368176e+00   1.4117987e-04
 -1.1316968e+00   8.4691768e-04
  3.6632934e-01   1.9009388e-04
 -1.0964075e+00   4.1137065e-04
 -1.2702446e+00   1.5166943e-05
  8.2158342e-02   1.2779225e-05
  1.4831814e+00   1.7848444e-04
 -9.4845992e-01   3.0716208e-05
 -2.9803425e-01   3.0211918e-04
 -2.0324473e+00   2.4533347e-04
  2.0222623e+00   1.4719280e-04
 -2.2395346e-03   5.0764353e-05
  7.2366792e-01   3.7951446e-05
  4.6691959e-04   7.7084063e-05
 -3.2316709e+00   6.6828048e-05
 -2.6983389e-01   2.9951171e-04
 -4.4289549e-04   1.1943722e-04
 -2.8407629e-04   1.6832168e-04
 -5.0414382e-03   2.0065483e-05
  1.6965079e-03   1.3278514e-04
 -1.9496474e-05   1.1818804e-04
  1.0248395e-06   9.7758297e-05
  1.6304840e-03   1.5917576e-04
  3.4091242e-03   3.4079741e-04
  7.2836468e-04   1.3676679e-04
  1.5642343e-03   4.3084455e-04
 -5.9613038e-04   1.8896932e-04
 -9.3980227e-05   2.2497262e-04
  5.1753270e-04   3.7818845e-05
 -4.0552038e-04   2.3504716e-04
  9.8967878e-04   1.0957421e-04
  1.5442434e-04   1.5121241e-04
  6.5639135e-03   4.3369895e-05
  1.9055069e-04   2.8399067e-04
 -1.2862758e-04   1.5663715e-04
 -1.7457373e-03   1.2732431e-04
 -5.4352276e-04   1.7207389e-04
 -5.7674124e-04   8.7601540e-05
 -4.8518876e-04   2.7396413e-04
  1.0829201e-04   2.9372005e-04
  1.7357699e-03   8.5073712e-05
  1.4756296e-03   5.4209895e-04
 -1.0897082e-03   3.9729220e-04
  2.7884889e-04   6.9497059e-05
  1.1674872e-01   9.1476395e-05
  7.8319584e-04   5.3899206e-05
 -1.4223166e+00   1.9643347e-04
  2.1243763e+00   6.1339269e-05
  1.1547925e+00   4.9167902e-05
  1.5122893e-01   4.3322409e-05
  4.3623580e-04   1.5908772e-05
 -3.8316342e-04   5.1158662e-05
  1.5485272e+00   1.3239239e-04
  3.1465966e-01   1.2295989e-04
  7.4619073e-01   8.2966268e-05
  1.9628694e+00   8.5948683e-05
 -2.3177645e-01   2.6114454e-04
 -1.0914815e-03   3.0367789e-04
  7.3094732e-01   1.6979261e-04
  1.1166293e-01   1.1786378e-04
  3.3590415e-01   9.2752896e-05
 -4.5340595e+00   3.1515996e-05
 -9.8883462e-01   3.9894934e-05
 -2.7312365e-01   5.1327421e-05
  2.0014586e+00   6.9919153e-04
  1.2334549e-01   9.3436844e-05
 -1.9697971e+00   1.4782579e-04
 -8.3829772e-01   1.8673371e-05
 -1.1357504e-01   3.4179609e-06
 -6.5058267e-01   4.1540223e-04
 -2.0886822e+00   1.2955047e-05
 -3.8200166e-02   2.8853863e-04
 -2.4632957e+00   5.8343910e-05
  2.9745562e+00   1.5503156e-04
 -1.0637450e+00   3.1070642e-05
  2.9769948e-01   8.6715962e-05
 -1.5777814e+00   1.4626926e-04
 -3.1208485e-01   5.1151328e-05
 -2.1986148e+00   5.5421656e-04
  1.7295130e+00   4.2539716e-05
  2.9652338e+00   3.5563408e-04
  4.7394961e-01   6.1598170e-04
  4.1039884e-01   1.0546837e-04
 -2.1943666e-02   2.2461720e-05
  1.6319897e+00   3.7797142e-04
  2.7435003e-03   7.7227814e-05
  1.1858838e+00   1.5074630e-04
  2.6515777e+00   1.3666587e-04
 -1.7093302e+00   1.4379648e-04
 -7.6076889e-01   4.9289538e-05
 -1.6793840e-01   2.8945517e-04
 -1.6187547e+00   1.0745261e-04
  7.8761711e-04   4.6882921e-04
  2.5461264e+00   3.0519365e-04
  1.2282119e+00   6.3509673e-05
 -6.8311095e-01   1.2119003e-04
  5.1558260e-03   3.1199394e-05
 -1.0346639e+00   9.0541122e-05
 -8.7728870e-01   1.2262753e-04
  5.6778431e-01   2.1646202e-04
 -9.0222049e-04   6.6899593e-05
 -1.8894261e-04   1.4550821e-04
  2.0186514e-04   1.3709755e-04
  1.6745286e-04   6.3045423e-05
 -5.3617812e-04   4.8325139e-05
 -3.9865103e-05   2.9269706e-05
 -5.4203533e-04   1.3163153e-04
  2.3124893e-03   7.0577669e-05
  2.2554766e-04   3.4329583e-04
 -1.0932657e-03   5.3083568e-05
  8.7109971e-04   3.0581999e-04
 -5.9410551e-04   3.4269036e-04
 -2.7648665e-04   1.4381399e-04
 -2.2396269e-04   3.1683952e-04
 -5.4781587e-04   2.5658924e-04
 -5.2278442e-04   3.6987799e-04
 -2.2473477e-03   1.4894271e-04
 -8.5979846e-04   1.8440608e-04
  5.3667370e-04   8.7074433e-05
 -5.8128429e-04   3.4244801e-04
  1.4462012e-05   2.0388055e-04
 -1.0645837e-04   2.7373233e-05
  6.0021761e-04   4.7008649e-05
 -1.5737907e-03   8.7866581e-05
  6.7530829e-04   4.1435266e-04
  2.6933834e-04   1.2782862e-04
  4.3538734e-05   6.0436338e-05
  2.9795853e-04   1.1865880e-04
  1.1084553e+00   6.2789579e-05
 -1.9657513e-02   5.6940389e-05
 -3.7944870e+00   6.7930014e-05
 -3.1021321e+00   1.0182198e-04
  2.2333739e+00   5.8778372e-05
  1.7651643e-01   4.1576332e-05
 -3.0560084e-02   7.3899151e-05
  2.8848851e+00   8.7859655e-05
 -4.6883349e+00   1.2190879e-04
 -1.5918061e+00   1.0727739e-04
  1.2756072e+00   4.6103538e-05
 -3.5136443e-02   2.0505604e-04
 -5.2533646e+00   7.6227887e-05
  3.7784556e-01   2.7214683e-04
  8.0760449e-01   9.0528820e-06
 -3.0793282e-01   7.9058140e-05
  4.8576686e-01   4.1076084e-05
  1.3386546e-02   1.4994031e-05
 -3.5376275e-01   7.0495225e-05
 -4.3924603e-01   1.9374591e-05
  2.4572972e-02   2.6791985e-04
  5.2692020e-01   6.7347479e-05
 -2.6033038e-01   7.9607707e-05
  1.2993796e+00   8.8254063e-05
  3.9161527e-01   2.7342418e-05
  5.0644279e-01   7.2762967e-05
  8.9563280e-01   6.3454027e-05
  4.3961663e+00   3.7242702e-04
 -3.9514804e+00   1.5133653e-05
 -5.3169298e-01   1.0431981e-04
  6.1998183e-01   1.6198299e-04
  2.1055467e-01   2.4367322e-04
 -1.1746891e+00   8.3006991e-05
 -6.5836143e-01   4.3010034e-05
 -2.7984920e+00   2.8435528e-04
 -2.8825970e+00   1.5057561e-04
  7.0332415e-02   5.3717107e-05
  3.4181483e+00   3.7665688e-04
 -5.5403943e+00   5.0104153e-04
 -1.4325725e+00   2.6133916e-04
  9.3037724e-02   6.1293453e-05
  3.1323645e-01   3.5663901e-04
 -1.4485236e-02   1.5769579e-05
 -2.7222930e-02   3.8317979e-05
 -1.5131846e-01   2.7716276e-05
  6.9807106e-01   3.5432971e-05
 -9.0920258e-01   3.8505078e-04
  3.1415683e-01   1.8505409e-05
  5.5984932e-01   1.1314487e-04
 -1.2209038e-01   7.6162476e-05
 -1.2368191e+00   7.4090844e-05
  6.0104567e-01   1.6233079e-04
  2.6762419e+00   1.3733919e-04
  5.8097404e-01   1.7768172e-05
  4.9900051e-02   3.7551788e-05
  3.9118104e-02   1.3466450e-04
  2.9119303e+00   9.8838238e-05
 -2.0539569e-02   9.1583250e-05
  4.7020403e-01   3.2785072e-05
  8.1702834e-01   2.2901330e-04
  1.2398775e-01   1.7360554e-04
 -6.8362117e-01   1.9116346e-04
  3.9147273e-01   3.2775872e-04
  2.6326545e-04   2.2190490e-05
  1.9340374e+00   1.1065416e-04
 -6.3043892e-01   1.0514315e-04
 -8.1957784e-03   5.4812768e-05
 -6.1149901e-01   9.1623624e-05
 -2.1242032e+00   4.7958856e-05
  1.0662311e+00   5.3639512e-04
  8.5611272e-01   4.8078725e-04
 -4.4250026e+00   8.2353552e-05
 -7.3065192e-01   2.8232082e-05
 -1.8379508e+00   1.2048018e-04
  1.1009260e-01   1.2183417e-04
 -3.6965182e-01   8.1147286e-05
  4.5906110e+00   5.6408491e-04
 -1.2730527e+00   1.5461160e-04
  1.5781413e-01   7.6377168e-05
  5.9532281e-02   3.0323068e-05
 -1.1211626e-01   2.4384490e-05
  2.2754553e-01   6.3094827e-05
  2.8350371e-01   5.0427108e-05
  1.9299275e-01   5.1979563e-04
  2.0554633e+00   4.6196845e-05
 -1.5899364e+00   2.1295385e-04
  1.5033540e+00   1.5299951e-04
  9.3153143e-01   1.7137721e-04
 -7.8501590e-02   1.6148273e-04
 -3.0396067e-02   5.0872397e-05
 -3.3100450e-01   6.5778229e-05
  2.5340419e+00   1.0503265e-04
  1.1951652e+00   3.1377404e-05
  9.8387912e-02   9.5803567e-05
  1.5408748e+00   2.3852818e-04
 -1.2777773e+00   4.7705358e-05
 -1.4549083e+00   3.0242361e-05
  3.7859894e-02   6.1959305e-05
  6.0735679e-01   9.0249268e-05
 -4.5708272e-01   8.5478117e-05
  1.0851480e+00   5.8867019e-05
 -6.9323100e-02   6.7520901e-05
 -2.6097986e-01   2.8903241e-04
 -2.1451960e+00   6.4022737e-05
  1.0451660e+00   2.9616928e-04
  2.8505573e+00   2.8904969e-05
 -2.6890428e+00   9.9723475e-05
  7.1422273e-01   5.8981339e-05
 -3.1894863e-01   9.3788512e-05
  1.1703987e+00   1.0370662e-04
  5.4405159e-01   3.2085420e-05
  1.5419172e+00   2.8958058e-04
  8.9185929e-01   3.1604231e-05
 -6.0302007e-01   3.4781599e-05
 -8.9127868e-01   4.7207446e-04
  5.4574150e-01   1.6446017e-04
 -3.3312500e+00   5.3523585e-05
  7.4137878e-01   1.9619845e-05
 -3.4126106e-01   5.4788648e-04
 -7.1332151e-01   6.1506551e-05
  2.1364663e+00   1.4506762e-04
 -2.3585598e+00   2.8493945e-04
  1.4651928e+00   2.4277596e-04
  2.8943965e-01   3.3272085e-05
  9.4289929e-03   2.3698850e-04
 -7.7122711e-02   8.1175473e-05
 -2.4341066e+00   1.3809225e-04
  9.1556555e-01   1.7827286e-05
 -1.7620574e-01   2.0102040e-04
  3.1776625e-01   3.1688058e-05
 -8.4437859e-01   2.7599730e-05
  3.8224906e-03   1.9543766e-05
 -1.6289638e+00   1.1570299e-04
  2.9339334e-01   8.7357890e-05
  3.5206247e-02   1.8316488e-04
  2.3579538e+00   4.4792081e-04
  3.6990705e+00   3.3019090e-04
 -1.3450428e+00   9.1731323e-05
  3.9437993e+00   1.0820117e-05
  2.9865003e-01   1.4299616e-04
 -1.2185942e+00   4.6292054e-05
  2.7840235e+00   1.6224552e-04
 -8.4396678e-01   8.7101816e-06
  1.6720890e+00   1.0882967e-04
 -9.0601951e-01   5.8697835e-05
  9.1592617e-02   2.6772400e-06
  1.5085676e+00   4.9190552e-05
 -9.3890721e-04   3.7890716e-04
  2.8349643e+00   9.4295487e-05
  1.8023221e+00   8.3811632e-05
 -2.7377713e-02   1.0936800e-04
 -6.1751372e-01   3.1091768e-04
 -3.5354372e-02   1.8527903e-04
  1.2638506e-01   6.4514832e-05
 -1.8506082e+00   2.1339917e-04
  4.0251980e+00   2.2187207e-05
  1.1190273e+00   2.4885532e-05
  1.9172210e-01   4.7752255e-05
 -1.5594096e+00   6.3746586e-05
 -1.5398476e-01   5.3548076e-05
 -2.7244216e-01   5.2963140e-05
 -1.0937769e-01   1.8975489e-04
  3.1383500e+00   2.8727707e-05
 -3.7322181e-01   8.5624197e-05
  1.5795408e-01   8.8294859e-05
  3.2977042e-01   1.3711402e-04
 -1.0197027e+00   8.1426624e-05
  6.5632463e-02   4.8106132e-04
  2.9835372e+00   1.6501330e-05
  1.2617407e+00   1.4931346e-04
  1.0292296e+00   5.2558939e-04
 -2.3936692e-01   1.1486044e-04
  2.7605541e+00   2.4147662e-04
 -2.5702295e+00   3.7770620e-05
 -1.0041701e+00   2.9173665e-04
 -5.4781003e+00   1.2421713e-04
  2.9840243e+00   1.9485466e-05
  4.3313739e-01   4.4308563e-05
  2.9754248e-02   1.7967765e-04
 -1.3655781e+00   4.5422986e-04
 -1.1258489e+00   5.8182635e-05
 -1.5806466e+00   2.1366686e-04
  4.0702816e-02   7.7561148e-05
  2.2570834e-01   2.2688526e-05
 -2.1049809e+00   4.9044214e-05
  1.4312683e+00   3.3525237e-05
  1.9588083e-02   2.7587390e-04
  1.3765328e+00   8.8173801e-06
 -7.2905252e-04   3.6853726e-04
  3.3690023e-01   1.1563118e-04
 -6.7967367e-01   8.1665916e-05
  1.2570498e+00   1.5568147e-04
 -3.5055932e-01   1.1327689e-04
 -1.1832227e+00   6.6873807e-05
 -1.0091046e+00   2.1146912e-05
  1.1169224e+00   9.7098193e-05
  9.3155682e-01   5.1143015e-05
  3.2727748e-01   2.8160573e-05
  1.3582212e+00   1.4242799e-04
  1.5870697e+00   6.8122274e-05
  5.9995126e-02   2.4425692e-05
  2.6300945e+00   8.6205808e-05
  2.5016413e+00   8.2892788e-05
 -8.6709136e-01   1.4229995e-04
  2.7800162e+00   1.0476162e-04
  2.3866148e+00   2.4420409e-05
 -1.1780351e+00   2.2045315e-04
 -2.0902660e+00   3.0433141e-05
 -3.5578012e+00   3.2038620e-04