8000
Time=2000.00000000 pbc="T T T" Lattice="54.74045612 0.00000000 0.00000000 0.00000000 54.74045612 0.00000000 0.00000000 0.00000000 54.74045612" energy=-31165.97558641 virial="-1916.33484372 87.26412988 -51.08321489 87.26412988 -1892.47101493 -119.78467376 -51.08321489 -119.78467376 -1957.14735062" stress="-0.00117592 0.00053206 -0.00031146 0.00053206 -0.00103042 -0.00073034 -0.00031146 -0.00073034 -0.00142476" Properties=species:S:1:pos:R:3:vel:R:3:forces:R:3:energy_atom:R:1
Si 54.30720223 1.04334747 1.41845827 0.00086869 0.00091249 -0.01291591 1.31379500 0.98278722 1.23183188 -3.83200622
Si 54.10407840 1.50951605 5.39339661 -0.01261910 -0.00148662 -0.00293561 -1.35570502 -0.77215746 -0.06028016 -3.91234183
Si 3.44261439 2.35202409 3.71102401 -0.00325484 0.00214116 0.00656402 -0.27035877 0.08364874 -0.17954874 -3.84716678
Si 4.04649943 4.67249898 52.67184662 -0.00300699 -0.00052860 -0.00360950 -0.28065234 -0.65415007 -0.11227599 -3.61726880
Si 1.85701727 2.06223235 1.50579734 0.01216960 -0.01342230 -0.00467581 0.29375200 -0.54381862 1.09350877 -4.18302059
Si 2.24977360 5.69379403 3.67870301 0.00421669 0.01018018 -0.00625732 -0.62089753 0.18959535 0.22865914 -4.14852047
Si 3.96416785 4.72388861 5.28600074 0.00708652 0.01647037 0.01883253 0.41036570 0.12745893 0.47996128 -3.97876716
Si 4.21377931 6.02168346 54.73888091 -0.00331779 -0.00700470 -0.00446365 1.47434202 -0.95558622 -0.28229758 -4.02050209
Si 0.23193851 54.01083617 4.30314162 0.00480447 -0.00725818 0.00057387 0.26531570 3.01052988 -1.28416628 -3.95134759
Si 53.65851556 3.98838069 9.80230306 0.00020929 -0.00473236 -0.00152348 4.23518431 -1.57941270 -0.32487509 -3.83328652
Si 2.47317180 0.42280867 4.89899875 0.00086443 0.00589002 -0.01121672 -0.05665594 -0.12007833 -0.06842822 -3.80406213
Si 1.14149737 2.84746241 5.27361644 0.01141667 -0.00294679 0.00126256 1.49405294 0.56918243 0.07785788 -3.98441243
Si 54.30908278 3.16751505 7.52725027 -0.00622231 -0.01106986 0.00285469 0.12004623 -0.22043978 -0.00928614 -4.00345230
Si 3.00330971 4.78806898 11.77213104 0.00311494 -0.00470233 0.01803530 -0.45913491 -0.64712772 -0.09702039 -3.89253831
Si 4.46843899 2.24714648 6.49244839 0.01113173 0.01070261 -0.00710065 0.10612512 0.26881969 -0.79681945 -3.20571780
Si 3.95513918 2.68650130 8.74362062 0.00108114 -0.00141352 -0.00013332 0.01321095 0.08476558 1.18879317 -3.74884105
Si 0.92742934 0.17980956 10.87067488 0.00115518 0.00239976 -0.00509700 1.23491333 -0.21552165 -0.11495927 -4.32664204
Si 0.18635403 3.21372393 14.25995931 -0.01273725 0.00458453 0.00792324 0.23513058 -0.14448377 -0.05542927 -3.75745320
Si 4.00408170 0.74726178 13.84811197 -0.00080810 0.00416289 0.00286844 -3.38911259 -1.58000880 -2.02807733 -3.89139485
Si 2.88688892 1.69875705 11.32671690 0.00194879 0.00696567 0.00343754 0.13963918 -0.21880853 -0.47633449 -3.76365876
Si 53.03100804 53.80370028 12.27593093 -0.00379375 -0.00302174 -0.00894652 -0.42824918 -0.67703131 -0.10478967 -4.13152313
Si 1.06645471 5.41089243 15.39923983 0.00709062 0.00230399 -0.00139362 0.18347572 -1.13588944 -2.77998346 -4.01184273
Si 2.67098872 1.85875433 15.84790795 -0.01795377 -0.00581918 0.01448799 2.07127374 0.90559760 -0.16843510 -3.88488507
Si 2.57705350 2.84907780 13.57640736 0.00637551 -0.01167159 0.00015630 -0.50326224 0.23024838 -0.18323582 -4.12740803
Si 54.57966355 52.63291570 18.26388256 -0.01105507 0.01078305 -0.00291413 -0.71083376 -1.06335399 -0.71539176 -3.89303946
Si 1.53389020 53.99994240 19.08818702 -0.00169017 0.00203854 -0.01483667 1.27915743 1.08759084 -0.31738503 -3.94510102
Si 5.47436608 50.70014737 17.28940500 0.00678118 0.00173549 -0.00777367 -0.76369911 0.28903364 0.27390931 -3.78236175
Si 3.50071617 4.48239347 15.34431672 0.00574606 -0.00377602 -0.01493099 -1.04553887 -2.41324881 1.40241635 -3.86526227
Si 1.14354667 0.93957790 17.13330402 0.00908479 -0.00771989 0.00940579 -2.14608662 -1.57600385 0.57691753 -3.77078128
Si 1.35369487 6.52895376 23.66073252 -0.01184272 0.00330431 0.01365840 0.40649736 -0.02630696 0.34278080 -3.86221719
Si 4.48619471 4.12696692 20.75373602 -0.00943618 0.00924566 0.01677554 -0.40866399 -0.24697432 -0.19008148 -3.94416213
Si 4.77096973 4.22692346 18.40839473 0.00142664 -0.01125616 -0.00369375 0.64198676 0.42360240 -0.74135824 -3.84975600
Si 1.76157511 53.53367683 22.27963031 0.00795717 0.01091544 0.00875694 0.91808605 -0.67253393 0.21632004 -3.98203683
Si 53.14032845 4.67050188 24.70208957 -0.01137689 0.00079783 -0.01573316 1.02964845 0.28153121 0.01857030 -3.93639874
Si 4.14356562 54.49809795 25.25644213 0.00051598 0.01165753 0.01013662 0.04690355 0.20757943 0.47181004 -3.82545543
Si 2.38417678 4.79058836 21.97585109 0.00833073 -0.00321227 0.00638622 -0.15881920 0.25455606 0.17061907 -3.99503064
Si 1.60676226 3.16262911 20.35980539 0.01179789 0.01224001 0.00227013 -0.47175813 -0.35981987 0.21547306 -3.52348685
Si 1.19187149 4.43859507 25.53259817 -0.00255825 0.00124851 -0.01520218 -0.82502875 0.59152943 -0.03504425 -3.81933522
Si 4.20423565 2.27975854 26.19247632 -0.00831487 0.01306442 -0.00273674 0.38673133 -0.24366319 -0.35157496 -4.07266331
Si 4.36799427 4.57017084 23.74519156 0.00541572 0.00801160 0.01696609 0.40602243 -0.33314173 -0.31885076 -3.98355174
Si 0.57583929 1.84833388 25.22042108 0.00790521 0.01168842 -0.00090760 -0.14348069 0.05552942 0.90468791 -3.95660710
Si 54.70594481 3.34212240 30.14199883 0.00146027 0.00760990 0.00449868 0.61588961 -0.08126569 0.38585746 -3.30023122
Si 2.25039685 1.02459986 26.99851170 -0.00735563 -0.00202735 0.00405759 -0.20911786 -0.54998467 -1.31282574 -4.01645756
Si 2.41097059 1.86939410 29.15948910 0.00829413 -0.01003114 -0.00167659 -0.51381662 -0.51156855 0.13891792 -4.00615311
Si 0.01496374 54.37015965 26.67465442 0.01000711 -0.00686632 0.00881919 1.53833997 -0.81464651 -0.33251646 -3.74225974
Si 0.77733201 3.40254668 32.65671084 -0.00851579 -0.00255917 0.00425585 0.04770386 1.01709837 -1.16655934 -3.77926898
Si 9.21339577 4.24436643 32.46108172 0.01292502 0.00931174 -0.00880246 -0.82718074 -0.59746072 0.10287619 -4.06198692
Si 3.01157835 4.05543019 28.98804650 0.00380821 0.01247955 0.00895360 0.42162050 1.91800250 -0.08910410 -3.80205941
Si 54.21694637 51.34281531 35.02948155 0.00169879 -0.00217954 0.00568300 0.25577345 1.52129510 -0.82198091 -3.77800584
Si 54.23983867 2.06889820 34.10683458 -0.00325323 0.01304744 -0.00455800 -1.03870773 0.51946180 -0.43093246 -4.18458843
Si 0.87334380 54.01886998 29.73343342 -0.00197066 0.00367935 -0.00679004 -0.86184973 0.29872090 -0.63508584 -3.81056619
Si 6.27952633 1.89744528 30.26214302 0.00900903 0.01172446 0.02077094 -0.45565689 0.85945408 1.25215989 -4.03237438
Si 1.10846080 1.19021733 31.06514046 0.00413152 -0.01778467 0.00727225 1.01239356 1.86010271 0.07672867 -3.96781182
Si 1.47437843 4.14662807 38.85468866 -0.00581833 -0.01423748 0.00058611 -0.02580076 -0.04723027 0.62925768 -3.42556500
Si 0.83714656 0.19066757 33.96756598 -0.00707478 -0.00387112 -0.01548766 0.22953559 -1.01854131 -0.48681771 -3.58676696
Si 3.33082451 3.31468865 31.27407879 -0.00159800 0.00883120 -0.00676620 0.03534329 0.28255099 0.82920620 -3.50124860
Si 0.04428420 5.47903437 36.54459894 -0.01308853 0.00639999 -0.01906329 -0.62919495 1.47330346 -1.02584256 -4.17759895
Si 2.40441436 0.59291739 40.69899003 -0.00990062 0.00469743 0.00934519 0.97524921 -0.85131496 -0.72832552 -3.79118562
Si 4.81642879 48.43312313 40.54680404 0.00764415 0.00714925 0.00986077 0.11606382 0.47442060 -0.67974976 -3.69721627
Si 5.00949233 0.33204918 40.02081343 -0.00289617 0.00599016 -0.00988577 -0.60927796 0.77889794 -1.41597293 -4.08190250
Si 4.66749877 53.35756115 37.43916980 -0.00140446 0.00495854 0.00696383 3.19002706 -1.37328598 0.20082650 -3.61708617
Si 0.94037390 2.45713178 42.65101310 -0.00231888 -0.00983468 0.00321904 -0.61187327 1.01903692 0.02922192 -3.81092858
Si 4.81156769 51.67450235 42.54757828 0.00791433 -0.01072975 0.00672463 0.66249871 -0.09762496 0.34072471 -3.82059550
Si 2.28287441 4.16167364 41.34706550 -0.01965428 -0.01082435 0.01206444 -1.29266865 -0.88357890 0.05564784 -3.70818353
Si 2.55058568 51.74412016 46.15449451 -0.00792459 0.00549222 -0.00163520 1.69433877 0.19205934 -0.03345942 -3.76221013
Si 0.72326781 0.27421886 48.75273861 0.00744255 0.00445491 -0.00622961 -0.74527402 0.32791334 -1.75478977 -3.80891633
Si 5.96447183 53.83481084 47.28512306 0.01289791 0.00502104 -0.00004763 -0.49625885 -1.28314877 0.42146108 -3.59476352
Si 53.18513076 1.77844579 41.25719424 0.00816078 -0.00240135 -0.00888811 0.71187639 -1.87231660 -2.01804018 -3.64568543
Si 51.50085703 54.19393680 41.71238973 -0.01647861 -0.00304698 -0.00849975 0.12174546 2.73311090 2.08076848 -3.75317502
Si 2.27354752 4.94675082 46.62345846 -0.00020586 -0.00364252 -0.00244409 0.40335250 0.04445960 0.03249973 -3.84809375
Si 4.10396863 54.17145769 45.95309215 0.00983774 0.00259942 -0.00995897 -0.59090482 -1.62474176 -0.92265755 -4.15889645
Si 6.84719055 6.49102487 45.43294938 -0.00898596 0.00544488 0.00263099 -0.26883648 0.60810727 -1.85030439 -3.82928205
Si 1.39264640 48.75158580 48.04276546 0.01419214 -0.01762450 0.00281153 0.29703337 0.02674848 0.44728737 -3.66416955
Si 52.90482237 53.83588682 48.70297056 0.00675818 -0.01568433 -0.00722854 0.26967898 -0.56149770 -0.15979701 -3.71422839
Si 3.11835505 1.81837469 52.15071620 0.00163677 0.00799887 0.00125061 1.76089495 0.45204619 -0.11289668 -4.11557770
Si 3.81105783 2.43259255 49.01403833 0.00480426 0.00424430 -0.01397836 -0.82025559 -0.17498843 -0.42725250 -3.94922900
Si 0.08381231 1.97803032 50.77365689 -0.00444711 0.00325528 0.00603778 0.28395033 0.19189646 0.24736815 -3.66576076
Si 54.36323095 2.65518105 53.39061739 -0.00202556 -0.00792571 -0.00164179 -0.58284515 0.49412504 -0.09613398 -3.91883731
Si 5.08283400 2.42918236 53.36608907 0.00891980 0.00634527 0.00011025 -0.06686199 0.59304760 -1.25393313 -4.27979183
Si 3.07258793 1.39076059 46.42958251 0.00555698 -0.02756143 0.01447052 -0.24292494 2.43540928 0.28173533 -3.92898583
Si 2.11564251 3.74609668 54.63164274 0.00362856 -0.00428529 -0.00283354 -0.22641754 0.75774109 -0.51512448 -3.77303243
Si 53.74391433 8.95524198 5.98476793 0.00314855 -0.00812447 0.00760234 -0.31026001 -0.91386583 -0.09663767 -3.95639110
Si 2.08958757 11.86065251 3.87211599 -0.00800120 0.00676943 -0.00947318 -0.05131859 -0.72085673 0.23360658 -3.99482417
Si 2.16280937 6.30046448 0.84330359 0.01186449 0.00140047 -0.00107424 -1.19452679 -1.60958016 -0.17446387 -3.98249412
Si 53.32426726 7.74600554 3.08774147 -0.00337943 0.00956523 0.00490392 0.40682423 0.55274010 1.09715541 -4.04146862
Si 1.15292426 13.71759544 2.44331956 -0.00999714 -0.00077216 -0.00866908 0.10432933 -3.29700220 1.27483898 -3.82808137
Si 5.21107870 10.75176509 6.63877361 -0.00411257 0.00067248 0.01974530 -1.32700133 0.84389961 0.89827469 -3.44813085
Si 8.04714999 11.62255504 4.35806589 -0.00068645 0.00153724 0.00522157 0.35810950 -0.49409950 0.65959546 -3.53243947
Si 0.35838565 6.68912810 5.14936869 0.00527746 0.01102152 -0.00952953 -0.05637665 -0.38181038 0.13603473 -3.99843049
Si 51.78602787 10.00727052 7.30514009 -0.01532541 0.00544524 0.00431854 0.21206510 -0.20178991 -0.46953827 -4.04236126
Si 3.42991619 4.93964444 8.20234416 0.00567111 -0.00674095 0.00480059 -0.03655448 -0.71146211 0.74294484 -3.68871522
Si 3.35437600 6.66814733 6.78950787 0.00611325 0.00297726 -0.00777709 1.62592080 0.25009757 -2.44726810 -3.75956893
Si 1.11246208 5.29476883 7.11248719 -0.00093995 -0.00025974 0.00715014 -0.46468937 -0.32254142 -0.24574631 -3.81769967
Si 53.79699835 9.07599024 8.41983106 0.00302254 -0.00915941 -0.00686585 -0.13868380 0.51851800 0.39954463 -3.78597140
Si 3.66406846 6.79140885 10.52888780 -0.01114857 0.00468691 0.00399635 -1.21868658 0.40619059 -0.11776727 -3.86093068
Si 5.22839164 9.17693646 9.73291527 0.00211679 0.00203254 0.00167375 -0.10784996 1.17830896 0.21418500 -4.01669884
Si 54.67588215 3.04513349 11.86033191 -0.00123197 -0.00010867 -0.00400062 -0.74819863 -0.12521878 0.21967357 -3.87897372
Si 52.88461629 10.45128166 14.91221650 -0.00629658 0.00729369 0.00407845 0.02712882 -1.08942211 0.81740534 -3.87157941
Si 54.11817346 7.22015236 14.25784095 -0.00786573 0.00245696 -0.00361718 1.14739704 0.30022064 -0.27641034 -3.75774646
Si 2.77659058 9.93756647 9.92313807 0.00128029 0.01762384 -0.00062560 0.43342706 -0.13293010 0.13899511 -3.51766562
Si 1.50020579 6.47428882 12.35957591 -0.00356613 -0.01043088 0.00126189 -0.70035614 -0.54534563 0.73353803 -4.05562210
Si 2.63437022 8.47086568 12.49249470 0.00070488 -0.00543431 -0.01394254 0.15203381 0.39324801 -0.08834940 -3.86913180
Si 3.61037158 6.41249545 14.38562005 -0.00229191 -0.00582725 0.00559033 -0.33934641 2.71632785 -0.94749001 -3.66207576
Si 4.80479769 12.06445437 11.71297335 0.00299095 -0.00782929 -0.00939517 0.60163468 -0.39407988 -0.40209782 -4.37186146
Si 52.51866648 5.76473053 15.06764017 -0.01390747 -0.00049745 -0.01323877 -0.62600099 -0.76512468 0.56419255 -3.97166514
Si 54.47903137 8.55248565 18.55687201 0.00791262 0.00963998 0.00397263 0.55309010 -0.73103441 0.65468678 -3.74442649
Si 2.82285856 5.77366434 18.54134754 0.00414824 -0.01532747 -0.01471315 0.08508501 -0.49067280 -0.53306028 -3.90302920
Si 3.05900769 7.93301980 16.30331639 0.00537847 -0.00392469 -0.00152228 0.35639858 -0.23234078 0.00615595 -3.95371366
Si 0.93558134 6.95816485 17.02110307 0.01231720 0.00051601 0.01016230 -0.15858977 2.24657801 0.96139121 -4.09406471
Si 2.62285535 9.09849138 18.41202347 0.01092204 -0.00282818 -0.00440780 -0.99295726 1.16684896 -0.45547124 -3.83752084
Si 2.80519960 7.22901115 20.49846535 -0.00560624 0.00448878 -0.00352852 -1.92345259 -1.84516904 0.80018523 -3.84336972
Si 3.37006579 11.48560423 17.35719918 -0.00321069 0.00382081 0.02185603 0.02381847 -1.56747714 0.38362300 -4.02024269
Si 52.14429683 5.52719656 22.36965095 0.00795911 -0.00305084 0.00285672 -0.20953497 -1.15242586 -1.07725981 -4.08344460
Si 52.74760202 7.05009258 23.85643207 0.00157923 -0.00211102 -0.00697997 0.35776727 1.56976330 1.32466257 -3.72656178
Si 3.40551957 6.01741772 25.24640281 0.00721052 0.00554295 0.00294268 -0.20077521 0.99427810 0.36730564 -4.12871647
Si 2.75100876 8.24791671 22.56567765 0.00094231 0.00912902 0.01282396 -0.37204605 0.61589521 1.38660005 -3.84096932
Si 54.21747927 6.19272564 26.73872027 -0.01585582 -0.00584992 0.00881484 0.21910159 -0.25825983 0.00926262 -3.67510581
Si 1.63883406 9.74796755 26.55715830 0.00232921 0.00046470 0.00174863 -0.36797184 -0.40679408 1.51170111 -4.22909164
Si 5.69692395 7.19321636 25.61103390 -0.00306966 0.00041715 -0.00073747 -0.62193500 -0.38400556 -1.07317865 -3.92762160
Si 2.88586479 9.88041942 24.69904345 0.00517380 0.00824190 0.00020886 1.20240808 0.18732765 -1.61089504 -3.63225961
Si 51.20728579 7.60719521 26.78323294 -0.00860788 -0.01552596 -0.00262968 0.65267232 -0.26065367 0.68792403 -4.06569767
Si 49.09410498 8.02656726 26.04611098 -0.00875795 -0.00382204 -0.01176658 -0.99221878 -0.09453909 -0.69267178 -3.86051631
Si 2.41875321 6.07552580 27.44663854 0.00215954 -0.00461111 -0.01305440 -0.46990895 -0.61847159 0.36692027 -3.90850711
Si 2.82018721 8.39040599 28.73114933 0.00764443 0.00677029 0.00977999 -0.00327218 -0.15901947 -1.42525023 -4.04121304
Si 54.38306735 8.71050022 27.33424375 -0.01389036 0.00056911 -0.00795321 0.18278439 -0.69077542 -0.34968355 -4.30506611
Si 1.09210987 10.97138092 30.81584704 0.00475337 -0.00339276 -0.00903915 2.32403350 1.48691513 1.45531480 -3.97928929
Si 3.24487325 7.32275006 31.32720807 -0.00847236 0.00581197 -0.00921801 -0.09147737 0.02741385 0.26445335 -3.99382567
Si 3.91140277 9.69245793 30.42444461 -0.00024226 0.00604625 0.00806526 1.18104517 0.61435807 -0.44032341 -4.15988636
Si 0.23147411 5.70398966 33.89525804 -0.01427203 0.00706762 -0.00842438 1.27558750 -0.81710979 0.01558313 -4.02481937
Si 54.32808017 10.00055135 37.56932291 0.00263201 -0.00170366 -0.00424913 -0.15974739 0.53781906 -0.76766441 -4.11333179
Si 3.80711705 6.19058357 35.66042144 -0.00710055 -0.00144453 -0.00090823 -0.40325935 0.27738950 0.40846621 -4.09415531
Si 54.51574714 9.63321479 29.80202872 -0.00226637 -0.01800750 0.00727755 -1.89568631 -2.30324697 -1.40681568 -3.81284976
Si 4.38983113 3.95273749 33.47910686 0.00370742 -0.00136511 -0.01144346 -0.11281091 0.66449804 -0.02627879 -3.88582969
Si 0.54476287 8.05736998 38.43645646 -0.00847894 0.00032922 -0.00464045 -0.91958481 -0.16979962 1.00748765 -3.89847398
Si 2.64697233 6.27295467 33.39799892 0.00636924 -0.00608788 0.01010814 -0.24599582 -0.19672068 0.83472538 -4.15523911
Si 6.88902974 10.16162811 36.04489780 0.00353275 -0.00069058 0.00334114 -0.34399223 -0.97039837 0.47718242 -3.75949264
Si 1.55828134 1.47823696 35.77099574 -0.00778913 -0.00094420 -0.01023489 1.02152379 0.69816722 0.28075399 -3.94008040
Si 53.99385684 7.20967450 44.13661251 0.00229437 -0.00260874 0.00666295 -1.70325749 -1.53566918 -0.70746368 -3.75650334
Si 0.04377270 3.33268926 36.09027198 -0.00232613 0.01145503 0.01115193 -0.57158290 -2.09887815 0.36942307 -3.64450145
Si 53.09943388 11.94166210 38.47764714 -0.00762748 0.02706830 0.01329114 -1.73704273 -0.58335769 -0.51756138 -3.54589868
Si 4.83623093 3.85559524 37.81570581 -0.00595111 -0.00888883 0.00264780 -0.68061543 0.99865931 -0.67373578 -3.90078807
Si 0.93108423 8.37318521 44.87614511 0.00738337 0.01332655 0.01002258 -0.20709446 0.64140847 1.37990594 -3.85176969
Si 3.38418388 5.89282283 40.46710774 -0.00388042 -0.00456113 -0.00681438 1.10256101 0.62389001 0.21285662 -4.21903992
Si 2.49495855 7.96329885 41.01931917 0.00040094 0.02216349 0.00501318 0.19763616 1.15397314 0.16643922 -3.85641122
Si 1.66682771 3.19115506 45.29233632 0.00208810 0.00929209 0.01269425 -0.08935374 -1.23956841 -0.54875925 -3.88967538
Si 53.60962509 8.49517862 46.62171072 -0.00357016 0.01075736 0.00062686 1.40750510 -0.34774804 0.65629184 -3.94140029
Si 3.64509777 6.86326421 46.49954166 -0.00014376 -0.00826624 -0.00709900 -0.31736273 0.63237017 0.67552723 -3.94709516
Si 2.51948692 10.06490719 44.13262385 -0.00502872 0.00112963 -0.00871252 1.00963417 -0.23847055 4.40124130 -3.73136973
Si 0.83546248 6.78699154 42.18777140 -0.00515488 0.01293887 -0.01741006 -0.90303089 -0.28281413 0.10845727 -3.73760104
Si 0.49632031 7.78911199 48.45764127 0.00224452 -0.00445380 0.00769799 -3.38837582 -1.67385745 -0.27881033 -3.97709632
Si 4.71602871 7.30139382 48.77520207 0.00119999 0.00319466 -0.00842952 -0.60369772 0.05128998 -1.14603052 -3.98128533
Si 7.58902359 10.97782616 48.04090657 0.00260811 0.00746351 -0.00258981 -0.34510043 -0.09471637 0.24513266 -3.90240693
Si 0.43014006 5.47017535 47.79877485 -0.00106281 0.01615780 0.00221232 -1.02597550 0.04059851 1.85291582 -4.19431400
Si 0.25250245 7.37498122 0.39437198 -0.00059396 0.00511531 0.01085217 1.01625749 1.94780302 -0.25518531 -3.71151614
Si 2.25561601 3.52899969 50.72545666 -0.00578182 -0.01126077 -0.01802371 1.17975014 -0.72079150 -0.17511979 -3.94131875
Si 0.87022860 6.73601583 53.11722321 -0.00654149 0.00233008 0.00546365 0.62578988 0.36817795 -1.65901232 -3.70098662
Si 0.15754047 4.40042183 50.46373126 -0.00776536 -0.00558953 0.01024541 -0.01119588 -0.24072108 -2.72606748 -3.95905471
Si 1.41234461 9.84235371 51.97780317 0.00278382 -0.00749465 -0.01052606 0.50516859 -0.05333143 0.47250968 -3.78031945
Si 3.17741387 7.54665707 2.35321786 -0.00139537 -0.01165211 0.00834366 0.98525965 0.30244684 1.51741734 -4.04794121
Si 5.75582253 9.33243883 51.33372841 -0.00206678 0.00114960 -0.00614809 -1.24360397 -1.19268510 -0.68653063 -3.98524070
Si 54.66198876 10.15183100 54.33255433 -0.00971193 -0.01391802 0.00038879 -0.53058985 -1.04826033 -0.15223381 -3.83040357
Si 3.34188818 14.90351489 4.62652419 -0.00038374 -0.00888150 0.00910216 -2.06015259 0.50985044 -1.32087621 -3.58376718
Si 3.09378535 9.80926822 2.33599069 -0.00745370 -0.00688823 -0.00045163 0.30804968 1.34271811 0.83034328 -3.56154132
Si 5.28516235 14.65371500 54.69740752 0.00856761 0.00639963 -0.00135530 0.90100326 -0.56344435 -0.82136972 -3.99989438
Si 5.44628814 7.64431291 1.25150009 -0.00769422 0.00099576 0.00426641 0.17719404 0.60416672 -0.74646038 -3.82329345
Si 3.58432175 14.13454768 2.32267217 0.01205942 -0.00234999 0.00908421 -0.76649725 0.67723433 0.33357239 -4.05718517
Si 4.40813255 12.64518514 4.23221269 0.02028487 0.00707786 0.00557801 0.14192975 -0.46069685 0.38668695 -3.85623431
Si 6.94032233 16.50685070 54.17692338 -0.01769568 -0.01075139 -0.00096949 0.05222702 1.14459223 1.38665637 -4.07604027
Si 0.85414067 10.52688748 5.89058293 0.00594833 0.00019925 0.00365451 1.09419072 -0.73430172 0.64758746 -4.09804344
Si 0.52468409 13.57134172 7.30086125 0.00148342 -0.00124092 0.01154433 -0.58277512 0.63845924 0.20260468 -3.93853498
Si 2.63509670 9.03788323 6.92164599 0.01431574 0.00161005 0.01202259 0.97034529 1.23579431 -0.09275341 -3.51522851
Si 1.13944987 16.12683833 7.08458286 -0.01512888 -0.00551337 -0.00836575 -0.12925220 -0.59127724 -0.31498976 -3.97190547
Si 2.58724883 12.68737164 6.43763216 -0.00796145 -0.00938901 -0.00855534 0.64407748 -0.06937454 -0.52942777 -3.60515046
Si 0.32085199 15.60606778 10.97845431 0.01354625 0.00453933 0.01396313 0.09764540 0.61487290 0.49282432 -3.76249909
Si 52.82952824 11.32949496 9.54902435 -0.01162182 -0.00802540 -0.00425627 4.93496573 0.81969218 -1.82370439 -3.61952996
Si 3.56596721 13.06947677 9.82257606 -0.00586407 -0.01665363 -0.00218682 0.26053393 0.14953512 -0.19113539 -3.70134997
Si 54.03885434 10.93544283 12.37496531 -0.00212916 0.00270085 0.01092005 0.63581499 -0.40357235 -0.37202526 -3.76401353
Si 52.97452581 12.95785148 11.83922012 -0.00006246 -0.00601842 -0.00368158 0.15932116 0.71633565 -0.06861049 -3.81704211
Si 2.06104984 7.30306959 8.43678384 0.01708871 0.01100380 -0.00994035 -1.51457763 0.58269751 2.75835431 -4.00480747
Si 2.82244563 10.88111100 12.40330257 0.00444838 0.00709013 -0.00044624 0.02324519 -0.05805606 -0.20229340 -3.96860671
Si 2.23879391 13.21345048 12.84540763 -0.00578343 -0.00668283 0.00294765 -0.09829876 -0.90446717 1.41827130 -3.68912959
Si 0.10239420 15.27404660 15.92721988 -0.00205309 -0.00298452 -0.00721307 1.02328667 0.25048617 0.58231795 -3.86368203
Si 2.99252070 12.87029946 15.51782282 0.00269036 0.00320601 -0.01864390 0.34062717 0.28308353 -1.43049911 -4.17922974
Si 4.62443164 15.34091216 11.30161723 0.00619044 -0.00068518 -0.01592946 -0.30781439 -0.23037344 -0.93886983 -3.88241220
Si 0.54576115 9.34002009 13.82624551 -0.00359220 -0.00074328 0.00639953 0.33909845 0.31784417 -0.16850641 -4.20635605
Si 0.11430684 12.68402486 18.45205531 0.00511196 -0.00640179 0.00518398 0.85649862 -1.62128574 0.03105804 -3.87888932
Si 2.64624227 12.52320653 19.26924001 0.00565893 0.00655455 -0.00165619 -0.29035485 0.94596127 0.41693902 -4.12063980
Si 2.68247800 14.77021729 16.84487324 -0.00205486 0.01015786 -0.01010798 -0.62711665 1.22420000 -0.12303066 -3.65973496
Si 1.46928756 11.06156775 15.27334712 -0.00501749 0.01689453 -0.01184132 -0.44710189 0.06622383 0.63979730 -3.67120814
Si 2.45493870 16.77315023 25.42429746 0.00304893 0.01139012 0.00839053 -0.52446336 -0.18047500 -0.75895896 -3.65294194
Si 4.05560083 16.18108949 22.09455970 0.00678968 -0.00238789 -0.00476559 1.19400288 0.01091614 0.20506338 -4.05054188
Si 3.40768116 15.10239517 19.11540247 -0.00819087 -0.00201441 0.00357550 -0.23643315 -0.99731690 0.09224559 -3.65861440
Si 0.87963519 10.15899776 22.87301552 0.00277060 -0.00490397 0.00819176 0.04279011 -0.39347150 0.03139901 -4.12203407
Si 3.28037342 16.95195084 27.61447777 -0.00600663 0.00984669 0.00950763 0.90112971 -0.36317486 -0.11977132 -3.79563403
Si 0.94640836 12.02761280 26.90532800 -0.00062985 0.01697045 0.00776786 -0.33793655 0.10138750 0.32639261 -3.97689652
Si 53.73217135 11.25952831 20.48580578 -0.00307077 -0.01040581 -0.01782082 0.17996186 0.30729133 -0.52653171 -3.86638379
Si 54.56073172 12.38070932 23.89794048 0.00436206 -0.01220360 -0.01396831 0.87250314 -0.67110887 -1.55795342 -3.71600699
Si 2.20014265 18.75330772 28.86798520 -0.00549933 0.01417775 0.00187978 0.46531439 -0.08293371 -2.67650044 -3.92422986
Si 2.93189469 13.20402385 28.11408814 -0.00727712 0.00402976 -0.00515711 -0.26814902 -0.70762041 -0.00607103 -3.83969522
Si 3.28755624 13.71581203 22.40124996 -0.00047012 -0.00128063 -0.00101340 0.76472256 -0.05886802 1.06905717 -3.93563533
Si 1.16876892 14.36135658 26.29808836 0.00001560 0.00297388 0.00940183 0.51954997 0.37495337 -0.12075423 -3.87771344
Si 51.94680090 9.77386357 30.98357361 -0.01083436 -0.00727518 0.00476238 0.56591329 -0.34509790 0.40086415 -3.81427693
Si 2.15655124 10.77545895 34.64032003 0.00319455 -0.00892109 0.01342348 0.01195168 -0.96055382 -1.82150331 -4.16249657
Si 3.38834079 12.21490424 30.49624066 0.01405208 -0.01266025 0.00770235 0.03794119 0.57015041 -0.66491747 -3.96489358
Si 0.49353933 14.85250977 29.06327517 -0.00317873 -0.01081233 0.00372789 0.63269898 0.95171571 -0.39688433 -3.99015927
Si 4.83743532 15.24500429 32.99996961 0.00862404 0.00390546 -0.00439993 -0.76486359 2.40442950 0.84596670 -3.91599870
Si 4.88595144 14.26021527 31.06624782 0.01109544 0.00028363 -0.01224484 -0.00311518 -1.07998583 -2.45162654 -3.88435721
Si 6.07124520 17.93413519 27.80910651 -0.00449670 -0.00409332 0.00022234 -1.10103112 -0.15858832 0.03994709 -3.85450912
Si 53.22307935 12.29456139 27.48201543 -0.00397743 0.00887935 0.00026500 0.70606944 -0.08482736 0.24349034 -4.05324268
Si 53.10260508 12.52655840 35.23561770 0.00408198 0.00276254 -0.01874061 -1.18895733 1.79370464 -1.16155471 -4.05467224
Si 2.97730431 8.42953441 34.71982139 -0.00017015 -0.00380151 -0.00438119 0.55066661 0.33442031 -0.21579546 -3.90189195
Si 53.56841021 11.29868167 31.53278153 0.00109485 -0.00011653 -0.00199917 0.17531800 0.69516923 0.89802502 -4.11997128
Si 0.08847461 11.11537974 35.47199072 0.00833890 0.00543447 0.00305177 0.03294212 -1.27835751 0.72989064 -4.13150501
Si 1.92336904 13.77050845 36.43875810 -0.00167742 0.00247393 0.00110403 0.48137230 0.19043820 0.42623731 -3.93474221
Si 4.71466800 12.04647550 39.09700512 -0.00698096 0.00058307 0.02072844 -0.14561813 0.32842897 0.16130114 -3.68571591
Si 5.69502819 14.23676475 34.77113815 -0.00596097 0.00095403 -0.00347040 1.23689600 -0.24613562 2.45913422 -4.04199219
Si 1.10995129 10.23871446 39.55045463 -0.00165222 -0.01389575 0.00667461 0.77827364 -0.45886672 0.73124737 -3.92902780
Si 0.56754627 14.96431044 40.62890637 0.00683896 0.00632518 -0.00101918 0.33675379 -0.32422876 -0.39673381 -3.80742383
Si 2.95015964 7.85784027 44.14585755 -0.00692107 0.01935759 -0.00611729 1.96831642 -1.74192908 -0.28876083 -3.77446246
Si 1.89345410 11.54821086 37.71200316 -0.00111086 -0.01314017 -0.01146329 -0.13601756 0.59181507 0.39412218 -3.71010518
Si 2.09848788 10.79466025 42.28283153 -0.01612786 -0.00362534 0.00291461 -0.93402800 2.51807809 -5.21821249 -3.72641063
Si 54.42710656 12.84088409 44.16372319 -0.00309809 -0.00344793 0.02065172 0.20148074 -0.27734160 -0.67530727 -4.06937218
Si 5.54750485 15.28632600 42.80366278 0.00602953 0.00705411 0.00229231 -1.49549440 -0.94121739 1.00599274 -3.86803651
Si 5.62494549 13.02559154 41.35414194 -0.01190039 -0.02320681 -0.00009951 0.08792973 0.66669393 -0.25229947 -3.90454412
Si 54.49661586 10.36105360 44.64138986 0.01640249 0.00074852 -0.00552538 -0.73238871 0.47659694 0.13722557 -3.60021234
Si 0.76572800 13.06577160 47.39100673 0.00245701 -0.00499757 -0.01035349 -1.27039129 2.92186397 0.87098975 -3.98021150
Si 1.13553859 11.39134397 48.76015577 -0.00733680 -0.01036407 -0.00118205 -0.14352036 -1.84186888 1.44597188 -3.95891404
Si 2.52218092 13.28711729 42.87919936 0.00544008 -0.00918401 0.00201670 -0.22987428 -0.53220344 0.28475952 -3.61546302
Si 1.63831925 12.46105451 45.47036170 0.00158053 -0.01323522 -0.00391758 -1.86930841 -1.51892871 -0.89694220 -3.90278602
Si 2.03807185 14.71823281 49.03929840 -0.00584063 -0.00137940 0.01067892 0.24166340 -0.42013079 -0.52197862 -3.81454492
Si 3.43703711 11.59268847 48.71269065 -0.00508871 -0.00006625 0.01204637 0.23752382 0.09157336 0.66699558 -4.07143497
Si 1.95444329 15.91016242 44.73379537 -0.00710829 0.00588700 -0.00478129 0.61139214 -0.66424044 -0.31593549 -3.90615296
Si 54.43404323 10.75808703 50.62361316 -0.01017354 0.00773403 0.00392327 -0.64815575 0.46006540 -0.45960830 -4.13661861
Si 3.98680511 11.47819667 53.74985524 0.01163541 0.00937920 0.00452903 0.63923176 -0.14977629 0.10073403 -3.60528970
Si 4.51843072 11.80681638 51.38794347 0.00244552 -0.00337924 -0.00201156 -1.38118254 0.61730331 -0.13715971 -3.81816792
Si 4.50431417 13.62086222 48.61354417 -0.00651544 -0.00081098 -0.00727981 -0.24969853 0.56906551 -0.22395316 -4.21587276
Si 2.18831555 8.91071314 48.94711168 -0.00142482 -0.00446124 -0.00449878 2.79287958 1.89448416 1.04800376 -3.21184897
Si 3.07150709 14.69064535 52.91179255 -0.00105247 -0.00383410 0.00909436 0.98180294 -0.27550305 0.06056812 -3.95368648
Si 5.53647813 9.99835007 3.29629952 -0.00850451 0.01402511 0.00126655 0.19939294 -0.13097181 -0.21540742 -3.79610324
Si 7.18668814 15.27783137 52.28319047 0.00116130 0.00628985 0.00024879 0.02538133 -0.31675966 -0.25120387 -3.98927331
Si 54.32986984 12.22330271 1.13107967 -0.00338840 -0.01578752 0.00888054 -0.15687706 0.01015949 0.12041014 -4.07486248
Si 54.29419041 18.02540930 6.04969843 -0.00985931 0.00968744 0.00268674 4.46658087 1.24375530 0.23704657 -3.95087075
Si 6.56659547 16.79830755 5.65962683 -0.00100091 -0.00031943 0.00939950 -4.19201875 -0.85551932 1.93283832 -3.56084609
Si 3.89586413 18.43032015 2.00727208 0.00090057 0.00655795 0.00696409 0.50497122 -0.23761449 -0.12341765 -3.87684369
Si 0.69571854 16.41648639 4.19728264 0.00014362 -0.00203749 0.00710356 0.30597935 -0.09867257 0.24215920 -3.67525744
Si 0.86931939 15.54605642 1.40264031 -0.00326942 -0.02069959 0.00341834 -0.32080826 3.26256424 -0.90526935 -3.70372272
Si 2.61579188 18.24218596 4.03045798 -0.00217876 0.01678255 -0.00840221 -0.77065825 -1.22323808 0.25374052 -4.07195759
Si 4.00733732 22.32017570 53.29196493 -0.01056599 0.00075682 -0.01372602 1.28305520 -1.67811674 0.07132208 -3.85019374
Si 53.33930135 15.48131148 6.98643724 0.00085646 -0.00461402 -0.00323767 0.64170456 0.08367181 2.10935736 -3.98775887