8000
Time=2000.00000000 pbc="T T T" Lattice="54.65150762 0.00000000 0.00000000 0.00000000 54.65150762 0.00000000 0.00000000 0.00000000 54.65150762" energy=-31145.10357141 virial="-1784.31667181 -15.55435767 94.50638684 -15.55435767 -1814.76629819 10.54155773 94.50638684 10.54155773 -1473.02922464" stress="-0.00171988 -0.00016275 0.00052771 -0.00016275 -0.00145809 0.00017131 0.00052771 0.00017131 0.00068163" Properties=species:S:1:pos:R:3:vel:R:3:forces:R:3:energy_atom:R:1
Si 2.90413269 1.06014991 52.22665502 0.01429108 0.00208595 0.00425603 -1.41103896 0.67793874 -1.20158306 -3.54002833
Si 1.31242160 3.19837778 4.94893633 0.00054463 0.00059658 -0.00077629 0.63396343 0.15472779 -0.56578136 -3.92178512
Si 3.22209884 54.17907328 3.91120767 -0.00548433 0.00286180 -0.00213275 -0.05924642 -0.88742587 1.35422376 -3.75552487
Si 4.99186678 1.12626847 2.90599860 0.00322783 -0.00193766 -0.01398067 0.10662737 -0.26603623 0.07360755 -3.74868178
Si 1.33105276 3.73298271 1.84193991 0.00579294 0.00162706 -0.00442915 0.68635988 0.80195343 -0.18814290 -3.64026189
Si 2.77942379 1.05609415 6.27529477 0.00120500 -0.01966337 -0.00145769 -0.13028848 0.98298982 -1.27557406 -3.77668929
Si 6.81767033 53.32955659 5.44354794 0.00531298 -0.00936263 0.00919121 0.38201365 0.53983209 -0.59958348 -3.83093333
Si 4.92363050 3.59383622 1.13359792 0.00523492 -0.00741107 -0.00073833 -2.19947153 2.31052032 0.91742198 -3.78943563
Si 0.79776570 53.57047726 7.76417597 0.00516265 -0.01804561 0.01954146 0.90947986 0.22327727 -2.05307811 -4.14813614
Si 1.16715807 2.57790610 10.47310974 -0.00513605 0.01084853 0.01280818 1.34358744 0.19358087 -2.38696790 -4.04363537
Si 4.09085369 54.28348092 7.51061687 -0.00970646 -0.01160585 0.00436402 0.96843749 -0.53964384 0.61063802 -3.90066361
Si 6.92385419 0.50816195 7.11964000 0.00181641 -0.00596871 -0.00827589 0.47579658 0.24225299 -0.20885460 -4.15311527
Si 1.83841364 0.82385206 8.43011841 0.00332610 -0.00513435 0.02596303 0.13911533 1.22123197 0.80705057 -3.88021255
Si 1.77242374 4.49999677 8.86666701 -0.00343725 0.00852329 0.00065818 0.24026702 0.07271481 0.18879515 -3.85205245
Si 4.32687537 2.27905552 9.33353396 -0.00834040 -0.00489762 -0.00355682 0.74071511 0.65488338 0.13053420 -3.59856963
Si 4.05846137 3.87030316 6.10752101 0.00344672 0.01018893 -0.00702191 0.59343764 -1.85110061 -0.01954746 -3.52437043
Si 52.59792506 2.24921907 6.43464313 -0.00681187 0.00849139 0.00300123 0.54777907 -1.86410779 -1.08179128 -4.01373005
Si 54.62600462 4.71857655 11.65329293 -0.00353462 0.00245139 0.00767354 0.50015473 0.43629454 0.29829407 -3.65969825
Si 52.59019664 53.22410406 12.67912152 -0.00164394 0.00401181 0.00881642 0.48596108 1.79398286 0.24093921 -3.70235085
Si 3.08374470 1.59341881 11.48162547 0.01197828 -0.00716011 -0.00103443 -0.59587458 3.13146925 2.68478227 -4.07213402
Si 2.32499517 53.02421574 11.82555119 0.00318286 -0.00344338 -0.00578683 1.24629235 0.14667492 0.22606699 -3.72777486
Si 2.22799652 4.15637377 14.87228349 -0.00166484 -0.00006195 0.00632906 -0.63369803 -0.65597464 -0.34242780 -4.22427559
Si 7.89154628 52.40048790 14.39563829 -0.00330965 -0.00198311 0.02021102 -0.36679855 1.15378715 0.44168709 -3.86971879
Si 3.76607984 0.20387707 13.49807096 0.00695240 -0.01180299 0.01565870 -0.97797251 -0.04540002 0.36150900 -3.90602565
Si 0.15171253 2.53443288 18.20816820 -0.01669158 0.00800742 0.00127634 0.85978569 0.87797859 0.70363235 -4.14883232
Si 2.30693944 1.89683127 19.21615390 -0.00395790 -0.00131811 0.00713992 0.10443455 0.21005273 0.85163334 -3.96529603
Si 3.30032650 50.36595820 15.92569347 -0.00414600 0.01135689 0.00845209 0.28784347 0.84806722 -0.44556808 -3.87159753
Si 3.96364769 2.38171478 17.50803621 -0.00413824 -0.01238900 0.00306791 0.24826647 -1.42580271 -0.12719125 -4.16165257
Si 1.16986233 1.77698007 13.97702086 0.01039911 -0.00618103 -0.00507202 0.70227309 0.20624104 0.88142735 -3.60833383
Si 0.27303482 4.00350646 20.99456526 0.00386940 0.00085899 0.00348720 -0.77217939 -0.35541591 0.31358609 -3.80287766
Si 2.64459621 4.13522434 20.54442793 -0.01132745 0.00897184 0.00158788 0.45679715 -0.74710737 -0.47163442 -3.94761252
Si 4.60412079 4.42750464 18.95527754 0.00642609 -0.00622319 -0.00081823 0.45732070 0.24899052 1.07325020 -3.87405992
Si 51.67880330 53.72241652 23.16001712 -0.00217895 -0.00982874 -0.00050019 0.00537908 0.02403885 0.27657306 -3.36779571
Si 0.39549780 4.06669483 26.23894775 0.00693381 0.00257144 -0.00368371 0.37185464 1.62718222 0.19148704 -4.13461113
Si 4.03513634 53.15672562 27.74160360 -0.00175909 -0.00854628 0.01147723 0.14980888 0.44144041 1.42006454 -3.72608590
Si 3.32720391 5.24713155 24.08748633 -0.00801703 0.00324112 -0.00359542 -3.68728459 -2.19391167 -2.01245379 -3.77583146
Si 0.27169133 0.87431360 22.95107058 0.01178526 -0.00603927 0.00466479 0.97896338 -0.73735619 0.20713025 -3.79409289
Si 53.22187754 4.62392331 24.68038624 -0.00080512 -0.00623617 -0.00993508 0.73563427 -2.00768983 -0.69422469 -3.88813424
Si 3.11840684 2.14235820 28.46720739 0.00546834 -0.00738893 0.00549165 -2.04560304 -1.98151841 0.87176656 -4.04306984
Si 4.82541563 4.71151297 22.03904556 -0.00802138 0.00597567 -0.00030093 -0.31920177 0.30063716 0.40112296 -3.89550471
Si 0.61118314 2.04107159 25.39808164 0.00391672 0.00384916 0.00720369 0.26324713 -2.12335641 -0.95563853 -3.63138843
Si 53.53689162 2.28883655 28.54937083 -0.00210015 -0.01615993 -0.01387963 -0.35937471 -0.53042182 0.28542659 -3.67608619
Si 2.21775425 51.24125909 28.13501322 -0.00060827 -0.00819165 -0.00335970 0.11505526 0.50196570 0.41280997 -3.96397185
Si 1.01796141 3.32520836 29.01836292 0.00138653 -0.00226246 0.00804590 0.30092901 0.33989817 0.66785255 -3.93040490
Si 1.77210705 54.15651870 27.24746496 0.01353541 0.00380916 -0.00755698 -0.26515014 0.12612522 -0.49944647 -3.83348727
Si 1.99275412 3.23105756 33.45204656 0.01619288 0.00280717 -0.00301011 -3.10631114 0.97212696 -0.66696596 -3.92414451
Si 1.59585053 53.93324294 29.58801225 -0.01425876 -0.02055718 -0.00473813 -0.02722275 -0.35113859 -0.58104253 -3.55326581
Si 6.99118937 2.09351343 24.91017633 0.00658222 0.01265643 -0.01360591 -0.27274957 0.25466990 0.24910273 -4.05659008
Si 1.10671938 0.01243479 31.69254905 0.00004511 0.00120536 0.00688446 2.10361545 -0.08126064 -0.46979715 -4.01000977
Si 1.15717837 53.65630876 38.31349530 -0.00490285 -0.00861577 -0.01088024 -0.86837351 -0.71544343 0.20817694 -3.96383309
Si 3.01727024 53.90633445 32.78215011 -0.00496484 0.00465167 -0.00753452 0.02259487 1.05386856 1.20554313 -4.26012707
Si 3.18159705 2.07647745 31.79134622 0.00061107 -0.00898915 -0.00692879 -0.09050846 -0.40452585 -0.43041062 -3.54813123
Si 3.56288421 1.00804825 34.17208149 -0.01490148 -0.01216468 0.00295568 0.09674197 -2.51062560 0.64483576 -3.64349484
Si 3.87326040 3.09248426 34.49770856 -0.00135360 0.00351434 -0.01129079 2.46587747 2.80221766 2.05558592 -3.77739453
Si 7.22121223 3.15579129 38.47895664 0.00563645 0.00418622 -0.01210243 -1.90223110 -0.91916746 0.08324975 -3.98355222
Si 5.93953094 3.30903395 32.51940294 -0.00829216 0.00997545 -0.00574329 -2.57736626 2.01514059 1.28950151 -3.80762506
Si 52.81934358 1.60637858 39.55591096 -0.00652217 0.00970630 -0.00016164 -1.00087220 -0.04266757 1.24334897 -4.18339539
Si 53.04479270 1.56990508 37.38500710 0.00174379 -0.00446616 0.00678218 0.56694026 -0.45325470 -2.19525447 -4.02471542
Si 1.12240937 53.50938065 41.68157335 -0.00495830 -0.00547473 0.01912646 -0.01091808 1.00705522 0.31108363 -3.90245080
Si 4.27260577 0.69376284 38.51470556 0.00570715 0.00434267 -0.00785985 -0.36042315 0.95792480 -0.65272644 -3.70335603
Si 54.04284256 1.81102579 41.47646058 0.00638581 0.00125216 0.00914138 1.58612609 0.30060755 0.31794348 -3.85969138
Si 51.89190522 6.62684748 43.37388666 -0.00965354 -0.00755466 -0.01094064 -1.24280751 -0.21305899 -2.73188902 -3.72606826
Si 2.12052988 1.91479560 40.90130167 -0.01801025 0.00046842 -0.00492201 -0.79604071 1.25837153 0.08345526 -3.69011712
Si 3.59359026 4.22380010 39.15181440 -0.00884383 -0.00631251 -0.00228321 0.82036692 -0.91334523 0.01916072 -4.14308929
Si 0.61942617 1.72901554 43.57307892 0.00020210 -0.00307190 0.00792049 -0.05258727 -0.18042535 0.56883653 -3.97884583
Si 54.04851380 54.22961246 44.62095812 0.01076291 -0.00140892 -0.00337260 0.08570766 2.77106053 0.40570316 -3.68866420
Si 3.37372387 54.39190727 46.88640903 -0.00177421 0.00787476 -0.00533114 -0.35287833 0.68200111 -0.88777912 -3.70247579
Si 2.69219355 1.56104654 44.83400676 -0.00797379 0.00486358 0.00916853 0.37758160 0.38405627 0.27573687 -4.02525902
Si 0.69603172 4.50274452 44.37729400 0.01418047 0.00361193 -0.00982622 -0.06526476 -0.31050920 0.16630846 -3.53041101
Si 54.21443121 3.15882244 47.26099452 0.00076158 0.01097399 0.00150096 0.67972736 4.30892015 -2.34323633 -3.61372495
Si 6.30044966 1.57283788 48.34705938 0.00613602 -0.00132224 -0.01316384 -2.36880589 -0.06775713 -1.12077248 -4.09823418
Si 4.43722751 3.39982540 44.55196502 0.00425897 0.00046224 -0.01280233 -0.51417324 -0.71735699 0.34925316 -4.10024643
Si 52.11243126 54.25242289 47.47075885 0.00206899 -0.00693724 0.00271887 -0.50114027 -0.36514938 -0.80347109 -4.05718899
Si 0.48839248 2.60755590 50.49959667 -0.01007927 0.00104262 -0.00705443 -0.14260435 -1.01097096 0.23892480 -3.67608809
Si 3.91888118 53.69204945 52.20386948 -0.00361106 0.00703303 0.00205985 -0.03247279 1.24044031 2.21525818 -3.35659170
Si 4.06923427 2.42623562 49.52503061 -0.00071888 -0.01079433 0.01077735 0.20683372 -0.07923569 -0.18223521 -3.44742036
Si 2.01411106 2.08734553 47.19184839 0.01098904 -0.01485592 -0.01499081 0.40899886 -0.12504518 0.23992480 -3.85548425
Si 0.43635548 7.18371254 0.14081453 0.01230894 0.00743411 -0.00177994 0.32741477 0.01427026 -0.66321933 -3.82226253
Si 4.77029495 1.14006944 53.67684884 0.00133618 0.00091749 0.01723001 0.71679783 -0.58075124 1.87214482 -4.03388977
Si 3.30879345 3.08751025 53.31299915 -0.00603025 -0.00066500 0.02057794 -0.01292747 1.47682694 0.34216791 -3.84110856
Si 51.65850826 7.24089858 3.14296949 -0.00724149 -0.01325782 -0.00448260 0.57690917 0.47391199 -1.05388050 -3.94907975
Si 0.54990865 5.50217572 3.81478134 0.01161757 0.00911346 -0.00845590 2.11647802 1.87449065 -4.43605447 -3.62650704
Si 5.72741257 2.73351581 4.65336006 0.00280693 0.00314627 -0.00278672 -1.14449996 -2.22724044 1.21110162 -4.03990269
Si 0.77633442 10.27344865 53.06733290 -0.00920627 0.00096230 0.00654893 -0.34167838 0.54117700 -0.98320723 -3.87791705
Si 4.20453498 6.12891360 2.84683058 -0.00135891 -0.00118521 -0.00001295 0.86354747 -0.48600793 -1.13204455 -3.67255807
Si 3.95200025 14.65813697 6.74510205 0.00566654 -0.01173282 0.00612015 0.33614403 1.43425995 -2.29073548 -4.00701714
Si 5.60801317 6.73360189 4.68732718 0.00751906 0.01888817 -0.00832541 -0.02907150 0.33107332 0.39630781 -3.88220620
Si 6.26788687 10.96208451 53.21268520 -0.00938732 -0.00373235 0.00573119 -0.21335709 0.06856126 0.45121710 -3.62795377
Si 2.42573487 7.14468905 3.84909780 0.00370202 0.02079504 -0.00491033 -1.14598605 0.02120161 -0.05227628 -4.04943657
Si 52.48739549 6.03534875 8.32958712 -0.00274500 -0.00549178 0.00809518 -1.47130841 -0.50732304 0.21565097 -3.74627185
Si 2.16164437 4.90449150 6.50234361 0.01957484 -0.00285824 -0.00906406 -1.29920733 0.51677832 0.75233957 -3.93041635
Si 51.94878275 6.72537544 6.21125117 -0.01363976 0.00928352 0.01527675 0.71026509 1.29718745 -0.25492451 -4.05786133
Si 3.67927659 8.53119932 5.36058776 0.00163406 0.00536346 -0.01901519 0.37703234 0.11400221 0.28820276 -3.74274611
Si 2.47380417 8.63686562 8.37132386 0.00688903 -0.00204537 -0.00488159 -0.41118279 0.49827597 0.14250179 -3.60439038
Si 4.57331088 7.63883906 8.27455415 -0.01042682 0.01540217 0.01259246 -0.21541286 -1.29835553 -0.50111844 -3.98433375
Si 0.68204793 8.60704369 4.42572493 -0.00255619 -0.00218552 0.00274934 0.11629707 0.20322669 0.38841254 -3.02825832
Si 54.38628990 5.75495083 9.44021077 -0.00066812 0.00665342 -0.02102057 1.95569614 -0.28539040 1.33988446 -4.07842636
Si 54.16069240 7.72980374 13.16434174 0.00555433 -0.00506820 -0.00754130 2.18322808 2.86403298 -3.60148358 -3.39721131
Si 2.67554226 4.71918685 12.64723785 -0.00446009 -0.00412791 -0.00308852 -0.56417418 0.92752326 -0.08570692 -3.87113595
Si 3.81337613 7.60852851 11.90562509 0.00605007 -0.00417892 0.00593198 -0.34731361 0.07452607 0.04112369 -3.93474793
Si 1.49374080 7.25088814 10.34011704 0.00311643 0.00498655 -0.02426903 0.46894840 1.13651554 -0.51363607 -3.96366525
Si 0.02951416 8.97678310 15.33293901 -0.00849713 -0.00810167 0.00328154 -1.83990812 -0.40767324 0.25715604 -4.08052063
Si 3.66618110 4.58213953 16.83402050 -0.00890002 0.00513721 0.00012872 -0.26335954 1.37323444 -1.20799288 -4.14998436
Si 4.91457475 10.08835104 15.45372130 -0.00895271 -0.00210710 0.02028695 -0.05132568 -1.03757459 -0.95239577 -4.06633091
Si 0.19753889 4.97236895 15.72576079 0.01467775 -0.00431639 0.01761576 -0.80294899 0.01436368 0.92110516 -3.66954970
Si 52.16516676 7.67664097 18.43026131 -0.01375116 0.00843504 0.00100983 -0.39150827 -0.62323070 0.75731897 -3.96286273
Si 0.65168956 6.24062207 20.05498007 -0.01861354 -0.00018992 -0.00103569 0.63198274 -0.26146030 -0.70629296 -3.59364009
Si 2.05314692 7.95640805 15.75939469 -0.00518721 -0.00518932 -0.00912364 -1.16790584 -0.85851735 0.49724285 -4.37699890
Si 1.93475241 6.21909220 17.54159501 0.01243449 -0.01187293 -0.00271665 -0.71986488 -0.21283287 0.00768423 -3.95493531
Si 2.82665608 8.15562012 19.10503869 -0.00166568 -0.01191776 0.00239530 -2.54990321 1.31706142 -0.21442785 -3.82169843
Si 4.54930667 6.93857431 19.06714013 0.00905267 -0.00247188 -0.00463129 2.30156839 -2.40978665 -0.05165264 -3.82651210
Si 3.16084381 9.42600420 16.98094505 -0.00201545 -0.00399574 -0.00829610 0.48372842 1.22002819 0.67822993 -3.99628043
Si 52.40071563 4.70539899 20.61687453 -0.00174779 -0.00589292 -0.00408584 0.00749376 -0.20059136 0.11027054 -3.90543771
Si 53.56777374 9.27376264 23.93411678 -0.00031393 -0.01149648 0.00576993 -1.30084234 2.03828031 1.48445207 -3.88534570
Si 0.73026604 5.88528960 24.27725940 0.00085583 0.00584986 -0.01142365 0.44188271 -0.52878654 0.36598948 -4.05760860
Si 3.22298870 6.38148544 21.14089805 0.01382046 -0.02074467 0.00612640 -0.24497595 1.23005003 0.43246713 -4.12516308
Si 54.26095493 7.54635686 22.89301110 0.00010096 -0.00135544 0.00143571 1.06886281 -2.16648698 -1.80199313 -3.93886399
Si 53.14260902 9.52565110 26.88223956 -0.01435852 -0.00666090 0.00531069 -0.55714099 0.52277106 0.47532375 -4.03574276
Si 1.70238700 6.80142923 26.39686335 0.00736130 -0.00701410 -0.01204699 1.10769135 -0.44725054 -1.30922490 -4.14875412
Si 3.75099062 10.01516213 22.16674679 0.00844488 -0.00339519 0.00823693 0.25872852 1.03382613 -0.52488805 -4.06091499
Si 53.41878677 4.78037868 27.69858779 -0.01129472 0.00673473 0.00571097 -0.79020950 -0.33446586 0.54812375 -4.11313343
Si 52.42892686 7.24688433 31.19937067 0.00670215 0.00942568 -0.00600573 0.45761846 -0.39735895 -0.77946721 -4.38090706
Si 1.98811235 5.98977080 29.36548863 -0.01183388 0.00796968 0.00782436 -1.26189196 -1.06101602 -0.55228029 -3.60142255
Si 0.44735824 7.64168741 28.06177665 0.00155168 0.01142375 -0.00029707 -1.12600358 -0.28776247 1.26077414 -4.04642010
Si 53.93621174 5.88720712 29.72428572 -0.00200667 0.00467070 0.00097547 0.68719691 0.34425492 0.59100778 -3.96064448
Si 1.56453683 9.43268012 30.49516061 0.01083179 -0.00627633 0.00353968 0.06634352 0.22497535 0.38033283 -3.77194524
Si 3.49914852 6.20012718 31.08822230 -0.00293558 -0.00619230 0.00142436 0.89705442 0.72129719 0.27848834 -4.05753136
Si 2.34780632 9.06156695 27.82326856 0.01783009 -0.00410231 -0.02037397 -0.28546864 0.28592262 1.74526519 -3.96811938
Si 54.45614270 3.64447447 31.48086262 -0.00070822 -0.00174619 0.00226329 -0.29271806 0.38357148 -0.09153169 -3.68635535
Si 0.21281535 8.32478460 36.24009844 -0.01196789 0.00778860 0.00214056 -0.91593608 0.02308777 0.03981892 -4.14668751
Si 2.32237998 5.38250622 35.61793577 -0.01337040 0.00449206 0.00805147 -0.75870007 -1.14313108 -0.51818511 -3.62304235
Si 1.93197795 7.55148082 32.15571186 -0.00039045 -0.00723326 0.00194389 -0.20203261 1.10823382 0.11097765 -4.13056850
Si 0.80037680 6.03720623 33.45260087 -0.00857301 0.00157860 -0.00455486 -0.43669806 -1.33279851 0.77080065 -3.71407676
Si 1.89954187 8.60489598 34.56890148 -0.00234753 -0.01100895 0.00647888 -2.05567160 1.92950648 -1.73269263 -4.12192249
Si 3.44800704 7.47931251 35.45461130 0.00394006 0.00095792 -0.00899969 2.85258901 -1.34453960 1.97673130 -4.44204521
Si 5.67813386 7.26896839 34.59520876 -0.00057806 0.00142832 -0.00929570 -1.17212600 -1.41289848 -0.09649207 -4.30850792
Si 53.73475162 6.88626850 37.84250658 -0.00480650 0.01052618 0.00373653 1.04304005 -0.62590700 -0.06184759 -3.88207030
Si 1.58154422 7.91006153 44.52687497 0.00196922 0.01243659 0.01648383 -0.15023099 -1.79174620 -1.72630745 -4.14474487
Si 3.21894307 6.38216805 39.63681184 -0.00597994 -0.00998224 -0.00425578 0.12254906 1.55194098 0.54632387 -3.88030076
Si 3.64554960 8.35090743 37.72485142 -0.00336388 -0.00250075 -0.00265591 -1.37222368 -0.11376125 -0.23100770 -3.99255919
Si 3.06724336 3.00884512 37.20869474 0.01138146 0.00481022 -0.00900371 0.04114074 0.14501169 -0.62555774 -3.86450934
Si 1.96385576 10.35851608 43.64504754 0.00848225 0.00562409 -0.01405063 0.38731283 0.17320195 -0.12434787 -3.69436526
Si 5.22708970 7.04338861 43.43586761 -0.00651754 -0.00094970 -0.00613851 0.38595735 0.06718747 -1.53749824 -3.61746907
Si 4.47696936 8.26030465 41.05355624 -0.00180197 0.00124468 -0.00460093 -0.09364820 -0.83829808 0.23662257 -3.87802243
Si 52.53704556 5.23172508 44.76996936 -0.01066607 -0.00506576 0.00751948 1.08294082 -2.52620614 3.18385661 -3.78132701
Si 1.18827138 9.24876854 49.02122392 0.01176145 0.00868883 -0.00028180 -0.30063891 -0.97825793 0.63735974 -3.92901826
Si 3.85704018 3.96170651 47.10552071 0.00405110 0.00516066 -0.00282655 -0.27012217 -1.32533389 -0.83698942 -3.88441491
Si 2.55633839 6.14353068 46.20945938 -0.00371214 -0.00421591 0.01117018 -0.69401360 0.41009547 0.04574414 -3.57870793
Si 0.34861846 7.57023206 47.55776854 0.00026540 0.00712633 0.00116480 -0.03359753 -0.38359023 -0.47642328 -3.82691789
Si 3.65610327 9.03618328 49.62748824 0.00849740 -0.00156490 0.00283632 -0.29152676 -0.00767261 -0.33584969 -3.60163856
Si 4.72662807 7.79490900 46.98159143 0.01112678 0.00678096 0.00589397 0.48427245 2.43354112 -1.30735087 -3.73167968
Si 6.36144441 8.05590950 45.17486477 0.01234697 -0.00934234 -0.00170599 -0.16821655 -0.09633979 0.55944999 -4.03146553
Si 54.06011205 5.36309409 48.69244713 -0.00740432 -0.00197887 0.00081283 0.01146187 -0.49508435 -1.21053201 -4.27834320
Si 1.74910819 8.10462384 52.65969925 -0.00945684 0.00231465 0.01134322 1.21851922 -0.13108301 1.91332108 -3.74718356
Si 54.37588777 4.06184250 52.56746877 0.00179881 -0.00235989 0.00130393 0.45175282 0.23789227 0.51584366 -3.99393106
Si 3.19303232 5.47254866 50.21018361 0.00221379 -0.00873538 -0.00184007 -0.51714684 -0.30125418 -0.25307386 -3.77843261
Si 0.72100376 4.98489288 50.57749461 0.00732018 -0.00167647 -0.01372440 1.16714337 0.54086466 -0.15492639 -4.29176903
Si 2.72549904 10.88188306 50.98037872 0.01687335 -0.00125679 -0.00982341 0.06864315 -1.52941477 1.99868901 -3.86078429
Si 1.63663582 5.12315156 54.02867382 -0.01010568 -0.01191833 0.00785904 0.11876373 -0.82467909 0.55189028 -3.85971236
Si 3.66613719 10.02904897 53.61075835 0.00119742 0.00098865 0.00292975 0.42483026 -0.13507827 -0.21734578 -3.98305583
Si 50.22780793 12.33510219 52.21624514 -0.00624788 -0.01410525 -0.01223702 -0.01429132 -0.15535743 -0.65367368 -3.24128389
Si 0.87560242 13.46834194 2.96419837 0.00545379 -0.00549707 0.00042028 -0.26571852 -1.56971517 -0.53494877 -3.76394343
Si 4.86853117 10.31529221 3.99218956 -0.00793291 0.00187643 -0.00159291 0.17469510 -0.22035277 0.30179477 -3.67155147
Si 3.01542660 16.07430843 0.45284379 -0.00864583 -0.00501900 -0.01527085 -0.20734541 -0.84570892 -0.55254155 -3.87186360
Si 1.97161892 12.78783845 0.69617906 0.01048607 0.00647327 0.00536455 0.14542918 -0.09915107 0.38269615 -3.60713363
Si 2.01296396 17.52301098 4.28891194 -0.01176177 -0.00221396 0.00259369 -1.65493807 -0.22418802 0.42576520 -4.00189877
Si 1.73743720 11.15377918 6.54901239 0.00759337 0.00026030 0.00455707 -0.19120997 0.07237524 0.35139078 -3.58960795
Si 52.57358665 13.15338412 49.90195125 -0.00417941 0.00978187 -0.01702457 0.12403452 -0.07609808 0.38078505 -3.71016192
Si 51.67094464 9.33284256 4.38795823 0.00316269 0.01028235 0.01138556 0.89967851 0.78986692 -0.04560673 -4.08869171
Si 53.20472693 9.72234222 10.49670394 -0.01900450 -0.00824441 0.00348124 -1.52133203 -0.08351440 -0.31020830 -3.87120843
Si 2.69591664 11.33869912 9.35631490 -0.00622725 0.00138016 0.01143504 -0.02658298 -0.33547518 -2.07629654 -4.07923889
Si 5.96080337 16.33800924 6.29527309 -0.00913227 0.00694344 -0.01063509 -0.93115452 -0.18270576 0.17806477 -4.03014660
Si 0.56957425 13.66612608 7.19119437 0.00802549 0.00860926 0.01015167 2.29162255 -1.42399846 1.91414750 -3.55069423
Si 53.75998596 15.11200264 10.21588868 -0.00826298 -0.00866252 -0.01354496 -0.24298488 -0.98265517 -1.35891962 -3.69835591
Si 2.49336500 11.16721703 11.61508800 0.00682598 0.00410666 0.00670492 0.00821483 -0.15852863 1.44412369 -3.85354686
Si 3.52150796 13.91841101 8.73989117 0.00024273 0.00886988 0.00064242 -1.34932256 -0.61429018 2.73136085 -3.73761296
Si 0.63833641 9.36573999 11.32037900 -0.00330800 -0.01922689 0.00820257 0.74319699 -0.70977067 0.88621984 -4.18757057
Si 53.71723996 12.40588974 11.69643489 -0.00314877 0.00031395 -0.00081176 1.51510715 0.46570431 -0.67474069 -3.95575452
Si 1.95441263 11.86823187 14.27565135 0.01532608 0.00712934 -0.00796135 0.61239759 0.42066951 -0.24040061 -4.02688408
Si 54.56068619 11.48432263 9.60653346 -0.01331398 -0.01226325 -0.00111314 0.36740449 -0.11382857 -0.38657349 -4.01284504
Si 3.11117211 9.41727415 13.43747998 -0.00333013 -0.00518185 0.00662671 0.52597177 0.44868943 -0.13677856 -3.79724526
Si 0.59577355 13.70465685 13.36224763 0.00680769 0.00043254 -0.01335342 0.09672363 0.12502997 -0.51321094 -3.82354426
Si 3.90479128 13.05244448 15.07958431 -0.00778865 0.00323748 0.00121695 1.08422156 -1.08414468 -1.02765107 -4.13803959
Si 2.46641458 14.07147627 11.32406830 -0.00613242 -0.00054312 0.00157945 -0.62509783 0.64023983 0.34111336 -3.74830031
Si 53.29157222 12.54014254 15.18221976 -0.01115293 0.01009923 0.00361413 -0.57565324 -0.32321370 -0.58149095 -3.83752561
Si 0.52613675 15.17055781 18.57204067 0.00479916 -0.01168969 -0.00281026 -0.15896262 -0.08803368 0.69879295 -3.79969144
Si 2.35528967 11.61045734 17.83043967 0.00889209 -0.00401539 -0.00461363 0.56534015 0.13674682 0.42718735 -3.86619449
Si 2.48933364 13.93258035 16.53918882 0.00407570 0.00084459 0.00686932 0.09280843 1.62369877 1.06874013 -4.21386242
Si 0.46748027 12.71645728 16.61730187 -0.01022435 -0.00281988 -0.00697370 0.08859396 -0.70533825 0.48338583 -3.89439464
Si 54.58903370 11.15907600 22.98506387 -0.00176542 0.01276038 0.00105714 -1.10687208 0.08999237 0.21273246 -3.42320323
Si 3.31473846 13.75384729 19.11563633 0.00444785 0.02011836 -0.00704409 0.12142530 -0.45904116 -0.73379010 -3.94464517
Si 3.82656038 15.87229017 17.42713384 0.00978580 -0.00143037 -0.01299904 -3.47460866 0.03260732 -2.05057293 -3.71936870
Si 2.27641724 8.24265959 22.65658118 0.00749568 -0.01613457 0.01022393 -0.30327475 -0.14461768 0.19467008 -3.89414096
Si 50.77373178 12.07667005 24.72127616 -0.00999688 -0.00534661 0.00136095 0.26979047 -0.60228476 0.51684272 -3.51780629
Si 1.60067070 8.89815057 25.06992278 0.01073090 0.00266675 -0.00759376 0.74344319 -0.12061054 -0.26380593 -4.05320549
Si 1.25675723 12.87765758 22.16995578 -0.00340142 -0.00414389 0.00352010 -0.91539343 0.32404780 -0.94062185 -4.03204823
Si 3.02904058 12.37107095 23.37219644 -0.00047150 0.00668567 0.00082327 2.12647963 -1.61390135 0.97474234 -4.15001106
Si 53.68294543 15.16153189 24.76268324 0.00703540 -0.00222248 0.01643755 -0.10839799 -2.38340244 -1.02978948 -3.74221301
Si 3.47288076 12.35098429 25.90129569 -0.00657611 -0.00673295 -0.00302572 -0.40155736 -1.31808794 -0.98691672 -4.18642902
Si 0.82267993 12.61007554 27.47665405 0.00772887 0.00710030 0.00651689 -0.01255801 0.36217286 -0.36278653 -4.14890194
Si 51.54281322 10.33860325 29.04198194 -0.00301367 -0.00694036 0.02274771 1.00154799 0.01504493 -0.20066571 -3.87228179
Si 3.18829710 12.65620710 28.23671572 -0.00141771 0.00692492 -0.00637793 -0.55274671 1.05284774 0.35207869 -4.06634426
Si 4.07159471 10.88793226 29.55260555 0.01391659 -0.00129858 -0.00549066 -0.18589404 0.46658468 0.69646758 -3.94786811
Si 4.77649663 14.66189970 29.30513671 0.00103031 -0.00498423 0.00045374 -0.84244765 -0.93936867 -0.82711224 -3.85049939
Si 0.17165487 10.68774681 28.60987235 -0.01488121 -0.01059337 0.00449876 0.12435985 -1.38465625 -0.18735707 -3.92075276
Si 2.22022633 16.95152001 30.20036050 0.01104434 0.00875321 -0.00984397 -0.04365134 -0.32530546 -0.72308598 -3.89289689
Si 5.80114429 9.66564837 31.10492848 0.00142616 -0.00549862 0.00378032 -0.47458225 0.39918905 -0.12637380 -3.95845628
Si 5.63332676 16.90123171 28.71448366 0.00614978 0.00870644 -0.00290693 -0.17784443 0.63524389 -0.95854092 -4.05647659
Si 0.03432187 10.83696966 32.11313249 -0.00595420 0.00377654 -0.00352991 -1.19057480 -1.79012707 -1.31395704 -3.90125966
Si 2.24955411 11.54343987 37.64410174 -0.00633197 0.00045391 -0.00108177 -0.75465035 0.75094590 0.31815220 -4.24437714
Si 1.87252620 11.04264077 35.30300200 -0.01127558 -0.01396977 0.01528020 0.76471812 -0.05524021 -1.60827854 -4.01540184
Si 1.32432087 14.31155638 32.14483072 0.01002014 0.00789322 0.00375781 -0.63642350 -0.65504166 -0.00443977 -3.93146920
Si 0.59095499 12.34089024 33.59656831 -0.00843114 0.00250462 -0.00498544 0.37488437 1.31712082 2.39693475 -4.14795113
Si 1.65606377 13.83697130 37.95063822 0.00607664 0.00244717 -0.02532707 0.08688897 -0.24465907 0.57414775 -3.85308862
Si 3.25276970 10.09966578 39.58634525 0.01210955 -0.00328587 -0.00462112 -1.78634787 -1.63632113 -0.10347211 -3.89008021
Si 4.50958207 11.76190115 34.27594607 0.00659844 0.00439651 -0.00177973 -1.43081057 1.18642116 0.73942634 -3.87222171
Si 1.41218033 7.61822220 38.95779697 0.00102711 -0.00538622 0.00135866 -0.87233959 0.17653290 -0.64893195 -3.94103646
Si 54.32793758 12.96430272 39.85323576 -0.00327876 -0.01243772 0.00707658 1.38088508 -0.59825873 -0.58614366 -4.12187862
Si 2.26501068 7.42426333 42.04426820 -0.00073728 -0.00700766 0.00627307 0.64392143 -0.82213241 0.64694311 -4.01965523
Si 3.97853294 12.41241594 42.03355008 0.00012820 -0.00377945 0.00223680 0.26412076 0.86621664 0.68360937 -3.94891763
Si 0.93734902 8.99796411 40.94852711 -0.00419032 -0.01611350 0.00086356 0.17372555 0.54947048 -0.61843811 -4.22136879
Si 1.46207109 13.04432653 41.60694331 0.00172281 0.00858070 -0.01731105 0.05782557 0.31922038 0.16238993 -3.99931264
Si 4.52133318 10.48716247 43.87755115 0.00356640 0.00269483 -0.00189749 -1.85538054 -0.61630487 0.96066269 -3.84892774
Si 4.83788122 11.55466355 40.04570077 0.01615917 0.01033520 0.00739315 -1.04920658 1.98521197 0.73579717 -3.87953258
Si 1.39002300 9.47810858 46.05316894 0.01739847 -0.00763174 0.00475835 0.14203763 1.88197541 1.35037335 -3.88123012
Si 0.05649265 12.54354377 47.96477257 -0.00471196 0.00164661 0.00410910 -0.23712099 -3.01684105 -0.51846981 -3.99204183
Si 4.11724054 10.11686856 46.30704320 0.01075711 -0.00605873 -0.00111788 0.23967049 -0.19277039 0.00234830 -4.16738605
Si 2.27898243 13.06759491 44.08150331 -0.00179209 -0.00081381 0.01049547 1.81763268 -0.31764424 -2.79182670 -3.65068269
Si 2.30434363 11.70127217 46.89117403 0.00148031 -0.01215242 0.00431135 0.25826257 -1.13037944 -1.07240647 -4.06673908
Si 0.48485081 17.20330477 48.40404921 0.00902663 -0.00708361 -0.00316943 -0.71901311 0.57863301 0.53529742 -3.72987771
Si 6.17310597 11.26233911 47.54671444 0.00593060 0.00107145 0.00940951 0.40562883 -0.89353523 -0.63156763 -3.94491649
Si 5.41133775 12.75985590 45.61851083 -0.01042753 0.00098927 0.00287651 -1.26575023 -0.61879012 0.24988151 -3.90441394
Si 2.48137938 11.98991382 49.12391395 -0.00678571 0.01585571 0.00146856 -0.28642315 1.86321610 -0.20007217 -3.92337346
Si 50.48369453 13.46868418 48.92539020 -0.01898212 -0.00687198 -0.00831409 0.07473212 0.20265146 -0.36538506 -3.85031152
Si 2.31187801 13.84970616 51.11511820 0.01289087 -0.00357895 0.00392657 -0.21205461 0.31669921 -0.09647024 -3.63748145
Si 7.26842986 14.55367937 48.33190114 0.01742794 0.00879157 0.01009363 0.12763506 -0.65444699 2.00873891 -3.95809960
Si 3.28624061 12.40975621 52.85183386 0.00654972 0.00445237 0.00913355 -0.18811019 0.15558520 0.35091376 -3.96399188
Si 53.84220114 14.74551533 51.38493411 -0.00698458 -0.00619976 0.00292531 0.12037560 0.02639709 -0.94018920 -3.27545691
Si 4.49605913 14.57501813 52.53444157 -0.00750077 0.00820670 0.00617472 -0.48074034 0.29808527 -1.62498182 -3.85210395
Si 3.70079802 16.42943325 48.24419487 0.00310279 -0.00042451 -0.00108187 -0.37150848 0.74069280 0.99472341 -3.79378438
Si 51.22177977 17.87350741 52.08903772 -0.01281627 0.00132159 -0.00187376 -0.64918506 -0.28457626 -0.52636498 -3.61366248
Si 1.63056672 20.74572765 1.38456552 0.01363581 -0.01209478 -0.01827484 -0.93099004 -0.19540605 -0.48398065 -3.49222732
Si 4.03043104 18.46891185 3.70543307 -0.01104234 -0.00469475 -0.00058529 -0.03651759 1.67251360 -0.70539625 -4.19724941
Si 54.27935003 16.91384358 54.43241776 -0.00821361 -0.01165204 0.00405756 -0.84208278 0.75919819 2.34461331 -3.57343459
Si 3.82057523 20.80265349 2.36504881 0.01321792 -0.00935812 0.00238082 0.94153222 -2.27712154 0.55004889 -4.01536083
Si 3.52937488 18.49686665 6.10794373 0.01386462 -0.00521566 0.00402267 -0.33274668 0.29439378 0.68184206 -3.37393785
Si 4.53260431 16.70543972 2.05518038 -0.00424982 -0.00224633 0.00007859 0.67939495 -0.75402477 -0.24017790 -3.61637139
Si 4.59891140 22.87834790 3.17408993 0.01492257 0.00836980 0.00206500 1.38520372 0.51038146 0.55720294 -3.63317275
Si 0.46851446 15.54995542 3.72223747 0.00563428 0.00353731 -0.00372135 -0.22768487 1.64476478 -0.78340125 -4.17100620