8000
Time=2000.00000000 pbc="T T T" Lattice="54.65381429 0.00000000 0.00000000 0.00000000 54.65381429 0.00000000 0.00000000 0.00000000 54.65381429" energy=-31159.75331211 virial="-1645.60210919 11.05573682 -5.63338662 11.05573682 -1722.88199360 27.94033801 -5.63338662 27.94033801 -1798.98810441" stress="-0.00056522 0.00001288 -0.00012631 0.00001288 -0.00112819 0.00012393 -0.00012631 0.00012393 -0.00140878" Properties=species:S:1:pos:R:3:vel:R:3:forces:R:3:energy_atom:R:1
Si 52.83895698 54.06550390 51.78798537 -0.00395908 -0.01711337 0.01267466 -0.51480335 -0.37953222 -1.00849997 -3.87366557
Si 2.12857115 3.02224366 4.70384073 -0.00757989 0.01353352 0.00399869 0.87551033 0.49500132 0.74851972 -3.62282395
Si 3.61530186 0.79335420 4.97784717 -0.00098440 0.00245550 0.00169986 -0.82755721 -0.83420330 -0.54450926 -3.44873738
Si 11.34410161 6.65132499 2.15295870 -0.00858382 -0.00044436 0.01156622 -1.41283339 -1.29586130 0.12054808 -3.66721606
Si 2.12613825 2.40158829 0.55018098 -0.00880758 0.01353052 -0.00713831 1.17449915 1.44902414 -0.31030697 -3.91982341
Si 2.69334052 2.29181315 7.47482042 0.00122159 -0.00731990 0.01235576 -2.50766581 2.10228869 0.35743392 -4.05639744
Si 3.95928088 52.71469343 3.36278458 0.00465346 0.00054767 0.00420429 0.67600408 0.02175298 0.80970359 -3.67600608
Si 3.13214776 6.83869669 4.36185701 0.00698416 0.01961578 0.00160415 0.58436553 -0.15062988 -0.73718275 -4.01663876
Si 52.36165879 54.56400153 0.33646212 0.00131481 -0.00297488 -0.00603948 -0.37755150 -0.39333662 0.05348909 -3.89769483
Si 0.85894460 2.40637165 10.36121497 -0.01196826 -0.00855016 0.01302045 0.96635631 1.03526330 0.56123143 -3.56767821
Si 6.01096665 1.84206507 9.26449248 -0.00286642 0.00959497 0.02381487 -0.31886747 1.09981540 0.48443374 -4.04088402
Si 5.47904895 53.48389174 7.88237075 -0.00696225 0.00525642 0.01610951 -0.19359736 1.79503781 0.74484451 -3.94716954
Si 1.35199942 0.45458594 7.19270442 0.02433152 -0.01199031 -0.02664786 -0.29144466 -1.20291632 0.00105131 -3.72005057
Si 54.49377825 5.42097860 7.54153686 -0.01552857 0.00581066 -0.00673389 -0.11621149 -0.34755646 -0.74463508 -3.89986253
Si 3.50654190 2.21058207 9.74449558 -0.00478586 -0.00200510 -0.00161417 -0.12371919 -0.07434876 0.96866757 -3.82102942
Si 4.95853409 7.21186670 6.06084407 0.01188134 -0.00146527 -0.00843965 0.04259962 0.58474582 0.10924155 -3.93980861
Si 52.48361273 1.34914992 9.51395031 -0.00840422 0.00509032 -0.00557802 -2.14713490 -0.02229732 -0.21391916 -3.11404848
Si 52.82466167 3.64422958 15.46930614 -0.01283617 -0.00670648 0.00742216 1.39614326 2.73403266 -2.03281873 -3.66873336
Si 2.30386313 51.29364807 10.49903489 0.02844960 -0.00322400 0.00176271 -0.46917737 -0.24957770 -0.41525257 -3.88593507
Si 3.79820720 4.76287184 10.60578913 0.00714696 -0.01592368 0.00589464 -0.46531010 -0.50542255 0.23841892 -3.90746760
Si 54.53837844 0.61163231 9.37710530 -0.01405736 0.00899954 0.00612133 1.23972335 -0.56112602 -1.09112513 -4.25984097
Si 1.19935953 4.05395635 16.34659280 0.00333301 0.00813463 0.00334836 -0.27014220 0.48276103 -0.16457491 -4.22391796
Si 9.87458643 54.35946390 13.53740536 0.00414077 0.00167742 0.00280607 -0.55983911 -1.42940132 -0.46794026 -4.08553982
Si 2.63769801 0.13154241 13.81583401 -0.01196804 -0.00985998 0.00655448 -0.10801672 0.94832080 -1.08952683 -3.73122382
Si 0.93082750 3.05374948 20.86444628 -0.00557752 -0.00267107 -0.00040005 -0.39949595 0.62395675 -0.44060387 -3.98714375
Si 2.90161217 53.47943987 15.73810421 -0.00284233 -0.00686554 -0.00327162 0.02599204 -0.87625733 -0.07613766 -4.25462723
Si 4.80634306 50.87200598 18.86795437 0.00041943 -0.00566617 -0.00466306 0.02936566 0.70641905 -0.08232301 -4.18061924
Si 1.76976746 1.92490469 17.16251966 -0.00155153 0.01742605 -0.01325582 -0.28057630 -0.11054224 0.42356996 -3.70731187
Si 4.93127469 1.50438305 15.30863301 -0.00015981 0.00444893 -0.00053399 -0.55897012 1.46978372 -0.93807793 -3.79120755
Si 0.40728162 4.61248732 18.66689961 -0.01271831 0.01108332 -0.00032068 -0.06037468 0.36733009 0.82420185 -3.73158622
Si 4.17689826 51.35775610 16.12584071 0.00375401 -0.01165391 -0.01420544 0.19164169 1.27396443 0.11190671 -3.94343829
Si 3.31115514 4.66191120 17.09176678 0.00177168 0.00242656 -0.00457994 0.76566458 0.27204826 0.23074651 -3.41995358
Si 51.85056333 1.56763611 21.70079420 -0.01150263 -0.00512225 -0.00211892 -0.27486113 0.33381391 -0.34337759 -3.66612887
Si 0.20787785 52.72898224 27.72613566 -0.00695066 -0.01166186 -0.00651372 0.30973050 -0.73808235 -1.88368136 -3.82812572
Si 1.49240509 51.42130144 25.14740297 0.00737759 -0.00252555 -0.01377530 -0.15527171 -0.03988999 0.62764046 -3.96531177
Si 1.65957871 5.34474723 21.47222650 -0.00194188 0.00105843 0.00361119 -0.21970058 -0.41754898 -0.14906424 -4.17805767
Si 54.00286548 3.36906620 22.99764970 0.00073083 0.00346859 -0.00507728 -0.24041753 -0.26021747 -0.75210872 -3.91945720
Si 2.19690704 2.64539082 26.05474550 0.01401477 -0.02153656 0.00221322 1.49938028 -0.58177144 0.92378509 -3.85686088
Si 2.76727092 1.93371471 23.30276140 -0.00638646 -0.00917234 0.00023535 -1.49737191 1.37455139 -0.62935603 -3.80638766
Si 3.25984636 4.61973683 23.19639176 -0.01487571 0.00510443 -0.01457301 0.78220183 -1.22750857 -0.05839353 -4.11108017
Si 1.30282785 49.97534826 27.24146547 0.00647170 -0.01669838 0.00411078 -0.40234327 0.36440755 -0.21887464 -3.91969132
Si 1.01871251 2.93730967 28.56856089 -0.00481553 0.01027417 -0.00063531 0.22024480 0.18455364 -0.93577448 -3.66224933
Si 4.41867298 52.74878876 28.02346444 -0.00841133 -0.00050383 0.00215814 -0.04014314 1.37693255 -0.76652347 -3.74354577
Si 54.62931838 1.18536808 23.95220484 0.00237007 0.01028904 -0.01464726 0.88879418 -0.05143954 -0.28714836 -3.52296281
Si 2.48751380 0.18558099 27.89360225 0.00016071 -0.00058666 -0.01010472 0.46564186 -0.76535123 -0.41931868 -3.81569076
Si 2.31087452 1.38301702 29.93219160 0.00347189 -0.00655815 -0.00271049 0.21760035 0.46814837 0.52617241 -4.01556396
Si 4.55911638 0.01037408 29.81276386 0.01455023 -0.01174623 0.00321821 0.48252312 -0.51555970 -0.64285624 -4.00747681
Si 2.05973035 53.68368051 24.66359375 -0.00481662 -0.02625810 -0.01312152 -0.42029072 -0.48785175 -0.20699460 -3.86793351
Si 54.57427619 1.32667829 30.23944281 -0.00625560 0.00769443 -0.00797843 -0.07537638 -0.07669076 1.26471555 -4.09490681
Si 53.42165146 54.39706399 35.77855963 -0.00337780 0.00733701 -0.00074782 0.24644625 0.66511589 0.66589531 -3.92073226
Si 3.10577584 53.29684496 34.71108068 0.00563229 0.00936837 0.00262365 0.88564663 -0.33015267 1.32178961 -3.74447179
Si 3.92225471 0.98822923 31.92984295 -0.01418542 -0.00502865 0.00158651 -0.39812550 0.21428666 0.39006693 -4.23616028
Si 2.06346444 54.45996533 33.04076114 0.00181969 -0.00371501 0.00432874 -0.57373866 -0.05141046 0.05941285 -3.91314006
Si 0.71129120 1.49827589 34.89483930 -0.00478091 0.00533575 -0.01842160 0.48683187 -0.39688279 -1.54679736 -3.98509908
Si 3.19993545 0.37846963 36.83652591 -0.00487889 -0.00415980 -0.00295223 1.29619652 0.08177263 -1.05980900 -3.91474175
Si 5.46520802 4.23506366 34.14311553 -0.00839481 0.00015507 0.00225213 -0.90209493 0.10981017 0.12413146 -4.02391529
Si 0.32038192 54.43202962 44.74734550 -0.00430175 -0.00963431 0.00734566 0.43551806 -1.04366577 -0.67211244 -4.28336143
Si 53.51871914 52.60130442 39.39068795 -0.00411534 -0.00720504 0.00488649 -0.38436323 0.48077479 0.23650330 -3.54101872
Si 4.14947671 52.32027080 39.70585911 -0.01731495 -0.00218957 0.00117832 -2.01226327 -1.47178102 1.78205138 -4.04723358
Si 0.98981113 54.51324197 36.97082926 0.00943522 0.00160243 -0.00728298 -0.82291867 -1.07105780 0.96568176 -4.00136089
Si 0.76276359 0.34640314 39.81322148 0.00905096 -0.00600527 0.00188445 -0.38626339 -0.97049065 -0.30687577 -3.71480584
Si 0.98263816 4.46219435 42.70838029 -0.00005296 -0.00831553 0.00774270 -1.30679631 0.93576618 -0.13558817 -3.87391067
Si 4.34264694 3.13271074 42.24221941 -0.00325311 -0.00109875 -0.00060085 0.37617984 0.56658069 0.01629212 -3.94257140
Si 1.38953540 2.68053503 37.19860420 -0.00879162 0.00752604 -0.00443268 -0.11112200 -0.27912676 0.74940616 -3.97039628
Si 0.35779133 54.01014772 42.15881558 -0.00638472 0.00640221 0.00491564 -0.46652065 -0.03866613 -0.31675497 -3.98952127
Si 1.15137512 2.95720411 44.47830350 0.00339680 0.00223710 -0.00282662 -0.35023613 -0.16182664 0.49815482 -3.93245721
Si 4.15019578 52.65582307 46.94662142 0.00971462 0.00688338 0.00777714 -0.45399302 -0.69712174 0.66277114 -3.81806588
Si 2.73336549 0.17730473 42.28602147 0.01690718 -0.00032046 -0.00163390 0.00473595 0.12180293 0.48699518 -3.81464458
Si 2.46974892 0.89926787 45.03767244 -0.00976085 -0.00223466 0.00464886 0.10369825 -1.32256681 0.05636106 -4.14901829
Si 0.94299423 3.93016605 47.09023437 0.00658705 -0.00388154 -0.00081582 -1.80306941 0.60376632 0.21555625 -4.03728962
Si 6.40738987 1.22230183 47.22922664 0.00170323 0.00404146 -0.00336959 -3.69790363 -0.54464734 1.19890273 -4.08910561
Si 3.67228304 2.85352769 44.77836585 -0.00487782 0.01623248 0.00407092 1.21047151 1.42948648 -0.45086448 -4.03322506
Si 1.38718598 54.43525173 47.07630973 -0.00547206 0.00792741 -0.00119093 0.27250093 -0.26045857 0.08712098 -3.98579478
Si 53.62621144 1.12488309 50.36844198 -0.00459462 0.00454930 -0.01099753 0.37937516 0.65238813 -0.17818506 -3.77947736
Si 2.41762527 2.35598647 52.63541647 -0.01222597 0.00496209 0.00266962 -0.07323673 -0.14371204 -0.22848843 -3.98627591
Si 2.53526369 2.39216322 47.14492307 -0.01398044 -0.00944001 -0.00113307 1.31827605 -1.61668918 0.59862288 -4.10298252
Si 50.49271652 3.45460243 47.59486081 -0.00002028 -0.00727808 -0.00725332 0.66771495 -0.75776236 0.67308888 -3.84306645
Si 0.80429813 6.23226943 54.42424055 -0.01141836 0.00381263 -0.00210697 -0.17069773 0.05145666 -0.48491716 -3.70045733
Si 2.67442236 5.11618823 0.67151273 0.00427108 -0.00258309 0.01072724 0.12087899 -1.27727574 -0.68470705 -3.96093917
Si 1.50345510 0.91154163 49.19124782 -0.00661492 0.00542516 -0.01497864 -0.82942963 0.83272791 0.08411402 -3.93580174
Si 52.01444773 7.82979867 53.92497532 -0.00773056 0.01378015 -0.00587304 -0.33094227 -0.78406721 -0.62223098 -4.16746998
Si 0.35933514 8.61670062 2.01567520 -0.00210567 -0.00069697 -0.00924343 -0.09531578 -0.43600482 -0.32575336 -3.85114264
Si 5.80806341 3.51301431 6.06793667 0.00021662 0.02193929 -0.00617627 -0.88943704 1.45231614 -0.56438297 -3.68104148
Si 1.12228550 9.78016720 54.45032427 0.01634120 0.00430007 0.00992930 0.53109640 -0.41994683 -0.04512858 -4.08659267
Si 4.93065231 8.70154534 3.94719407 -0.00590403 -0.00527109 0.01739102 1.09884227 0.25734198 -0.39531709 -3.92817426
Si 0.91170442 11.54547825 3.89060692 0.00406280 -0.00716180 0.00225174 -0.49569577 0.68793936 -0.75052685 -3.91151690
Si 2.65229960 9.02325232 2.93932491 -0.00517217 0.00667074 0.00381056 2.03749931 -1.01293415 -4.53108859 -3.75063586
Si 7.27136415 8.22032140 54.59782446 -0.00475312 -0.01092033 -0.00888131 0.39973661 1.06763610 0.82384241 -3.97731614
Si 53.25084269 5.67768990 4.05120983 -0.00791244 0.00249139 0.00086321 0.49962088 0.64656976 -0.51620252 -3.89617419
Si 51.43137121 7.98572399 9.34908232 -0.00279401 -0.00117730 0.01490306 1.50369665 -1.09899974 0.13481117 -3.68382096
Si 2.45987561 5.21277631 7.50602200 0.00194907 0.00544777 0.00084362 0.22623101 -0.46527778 -1.01078364 -3.78281236
Si 1.73976727 9.35977137 4.72744843 -0.01042246 0.00871296 0.01632723 -2.11966991 0.88310700 4.45753407 -3.68085456
Si 0.91027589 6.48443153 5.11985644 -0.01347301 0.00331939 -0.00333056 -0.83944789 -0.54643822 0.77954578 -3.70625234
Si 54.59336525 7.32764727 8.89118275 0.00162490 0.00037205 -0.00263227 -0.57918772 1.01587582 -0.64276753 -3.65342021
Si 4.84630769 5.79038645 8.19344615 0.01389051 0.00059607 0.00274473 0.25324252 0.10861912 -0.50832244 -3.85710263
Si 4.25196259 8.37961746 8.90973052 0.00496002 0.00027139 0.00428909 1.41890665 -0.03092787 1.39914364 -4.00069237
Si 0.88179899 2.47797057 14.08129391 -0.00851844 -0.01027908 0.00255890 0.66495791 -0.44205886 -0.81261891 -3.75684571
Si 0.63598956 8.97606786 11.42825756 -0.01006430 -0.00187302 -0.00760729 0.06222680 0.53871438 0.85933653 -4.00626564
Si 3.16001866 4.50807594 13.47631952 0.00678413 -0.00823367 -0.00113197 1.41243358 -0.36308292 1.23911370 -3.56814837
Si 2.80259717 7.63483473 10.66365905 -0.00687127 -0.01556605 -0.00531051 -0.89871967 0.17910628 0.42694746 -3.88476110
Si 1.73835993 5.71537135 9.65243594 0.00076349 -0.00850188 0.00505142 0.36313897 -0.26529915 0.43456545 -4.08343410
Si 1.40957691 9.14901493 14.06193487 0.00291087 0.01165730 0.00030142 0.81167755 0.60094637 -1.34525284 -3.92446923
Si 4.18861147 6.21545535 14.83820691 0.00801738 -0.01148621 -0.01015815 -0.68925599 -0.87084222 0.61711115 -4.28914928
Si 6.14029961 10.23271755 13.04809435 0.00868239 0.01129184 0.01775467 1.05197585 1.10159132 -0.23712134 -3.94121289
Si 0.19282021 6.01999011 15.36580342 0.00894182 0.00911779 0.00020464 -2.50114703 -0.53769654 1.25178965 -4.04526234
Si 53.38680928 7.61878207 19.41662292 -0.00037933 0.00386798 0.01769311 -0.62938479 0.24973708 -0.67317823 -4.02133083
Si 1.68311077 6.98327956 19.15329704 -0.00479691 0.00873981 -0.00286691 0.45997211 -0.99477300 -0.60555536 -4.09275436
Si 1.90390576 6.94862787 14.48385807 0.01523485 -0.00388868 -0.00856072 2.28784686 0.39037097 -0.52074640 -4.11747360
Si 1.36641864 7.74133165 16.91405287 -0.00269958 -0.00467697 -0.01159001 -0.34096173 0.02308157 -0.40690672 -3.73197865
Si 0.30874107 11.38543696 19.68603447 -0.00225281 0.02067717 -0.00454261 0.23824218 0.21192253 -0.04359001 -3.22431779
Si 4.17738353 7.07576453 19.99275265 0.00218387 -0.00309301 0.00979845 -0.37918623 1.03259128 0.14405128 -3.97672820
Si 2.82745731 9.51821745 17.44483250 -0.00542442 -0.00371832 0.00557324 0.39583259 -1.08611506 0.64566356 -3.67221665
Si 51.67535619 6.17561556 20.65947152 -0.00105180 0.01683880 0.00105758 -0.02649143 -1.27921253 -0.58336943 -3.94244742
Si 53.20617233 8.35327299 23.42501728 -0.00361175 0.00223495 -0.00930441 -0.06347236 0.95951009 -0.38196474 -4.00645065
Si 1.07916862 5.35402903 23.93512042 -0.00873963 0.00901522 0.00464309 -0.55308064 0.35770148 0.14712524 -3.83916450
Si 0.67867000 8.38450368 20.85709901 0.00164465 -0.01482601 -0.00382463 -0.36124241 0.50379950 0.10339749 -3.77487206
Si 53.97523854 5.99564910 21.09585836 -0.01181220 0.00380393 -0.01212557 0.21998984 0.05705525 0.62772876 -3.70712161
Si 0.82647659 8.91206980 26.08882869 -0.01016643 -0.00303603 -0.00380839 0.50568309 -1.45183146 -0.51129138 -4.18669415
Si 3.23186562 6.98570108 24.06508731 0.00075836 -0.00264303 -0.00681269 0.95250914 -0.24639434 2.36660492 -3.93787885
Si 2.74003281 7.56441328 22.01411477 -0.00258507 -0.00740321 -0.00000681 -0.46686077 0.87371859 -2.14575472 -4.02108479
Si 53.97710890 4.88948737 27.01502537 -0.00988398 0.00078314 -0.00244059 0.76677856 0.56232402 1.78114945 -3.94269633
Si 51.76115285 7.72264156 31.34123603 -0.00424862 -0.00558430 0.00951597 2.09472394 -1.10664144 -1.15023315 -3.67331719
Si 0.85051417 5.59196681 30.21149060 0.00200288 0.00609234 -0.00573755 1.32282236 1.29393828 -0.94363321 -3.96147180
Si 2.42944866 7.95488714 27.91888292 -0.00601492 0.01097373 0.00636517 -1.66445434 -0.16509452 -0.15626682 -3.88062406
Si 54.51656206 7.72206625 29.52731300 0.00353777 0.00652519 0.00188546 -0.05997205 -0.27655424 0.73100474 -3.87069726
Si 54.32827076 9.35232561 31.41700585 -0.01067208 0.00828066 -0.00286326 -0.45844504 -0.05212048 -1.12865223 -3.60641170
Si 3.30753783 5.12593906 33.28755515 -0.01309066 0.00398708 0.00637865 -0.74134731 0.28095604 0.47279844 -4.12373829
Si 3.34000419 10.10454725 27.57886940 -0.01067704 0.00529246 -0.00102639 -1.16707242 0.64551193 2.16942215 -4.11263466
Si 54.41907725 3.66724987 31.01512961 -0.00657102 0.00302876 0.00739485 0.27476922 0.12384397 0.52123838 -4.36910820
Si 52.78147995 4.17062480 34.56052903 -0.00507327 0.00356144 0.01034963 -0.56864164 0.00177470 0.23589373 -3.90606856
Si 4.03134801 2.92616688 35.73528246 0.00894429 -0.01400204 -0.00033709 1.07156900 -1.52297923 -0.66744050 -3.74563527
Si 3.00053103 7.09610225 31.12938951 0.01008287 0.00503897 0.00502720 -1.48826759 -2.62711757 -0.52027961 -3.85741210
Si 2.09473411 3.14467040 32.37031304 0.00031192 -0.00030045 -0.00594677 0.11731733 -0.06763005 0.01217330 -3.41909194
Si 1.69014176 6.32443325 35.04686781 -0.00816239 -0.00432598 0.00700681 1.58086686 -0.11475036 -0.04534301 -3.83977342
Si 6.03194369 6.92049367 36.96723944 -0.00077830 0.01771756 -0.00515879 -9.00867510 4.29687011 3.31015688 -2.88458681
Si 3.39167929 8.67448811 33.89804394 -0.01044531 0.00474261 -0.00643249 -1.88059903 0.76875499 -0.75827727 -3.61254716
Si 1.09255231 2.64296030 39.65505549 -0.01229112 -0.00423678 -0.00434074 -0.66815773 0.95744464 -0.08712798 -4.08716774
Si 1.46043719 10.19550821 42.14727959 0.00431659 0.01116651 -0.00447547 -0.77159137 0.04925312 -0.37637433 -4.19234657
Si 3.12672769 6.81903506 40.37547102 -0.00406352 -0.00458349 0.00178747 -0.60769644 -0.26213723 -0.80675133 -4.22109509
Si 1.80733873 8.68442451 40.13977859 -0.00920169 0.00683751 -0.00240018 -0.54206371 0.18845880 -0.68785825 -3.94121766
Si 2.68264003 4.59810486 41.18272498 0.00943464 -0.01255202 -0.00294473 0.45038161 -0.91293707 -0.45153579 -4.27034473
Si 0.29742992 8.59883086 43.37129870 0.00470434 -0.00114721 -0.00538408 0.21626067 -0.67504587 0.31690261 -3.99989343
Si 3.97768232 6.30726062 42.38935341 -0.00454716 0.00341350 0.00415223 0.47589946 -0.10007763 0.99258223 -3.75614333
Si 4.19076116 10.31876766 41.35452062 -0.01432820 0.00142686 -0.00437003 0.62090825 -1.97267491 -1.82720947 -3.74668574
Si 0.41542023 5.40724964 45.07387807 -0.00362485 -0.00695189 0.00723512 -0.08736118 -0.35635748 -0.30254201 -4.05840969
Si 0.87805482 7.08303754 46.95757049 0.00318939 -0.00117526 0.00353271 0.15843876 0.60751992 0.82127705 -4.36820126
Si 4.87072716 4.69212263 46.11305200 0.00717193 -0.00761139 -0.00879614 -2.76042628 -0.72034985 -0.61600503 -4.10371780
Si 2.61369020 7.83488716 43.66795343 0.00384057 -0.00558563 0.00514051 0.52745320 0.22702444 0.73359047 -4.16471195
Si 2.65271838 6.24862949 45.46936045 0.00930505 0.00392628 0.00302360 0.33424014 0.61175898 -0.01384190 -3.91921687
Si 2.94211934 10.67655123 48.02173497 0.00521026 0.01826941 0.00395138 0.36211117 -0.68382549 -0.71724550 -3.96383595
Si 2.85002757 4.41021531 49.31325933 -0.00563603 0.00974007 -0.00011215 1.30595648 0.12807372 -3.29556763 -3.78746676
Si 4.50900556 9.37590331 44.54837836 -0.00099538 -0.00958251 -0.00772856 -0.09011570 -0.85008031 0.03445801 -4.20973301
Si 0.54682968 5.76582521 49.04989851 -0.00645195 0.00102055 0.00581557 0.02903295 -0.06529772 -0.78297406 -3.77255273
Si 2.85565081 7.44495433 52.98967289 0.01476445 0.00643816 0.00339294 -0.35124022 -1.25166041 -0.39929688 -4.04934788
Si 3.39361468 4.84868836 52.23534430 0.00759114 -0.01432467 0.00158734 0.12250793 0.79978356 0.12960202 -3.79882884
Si 4.83851183 9.10844793 49.13762922 0.00611932 0.00851634 -0.00377963 -0.82974514 -0.00633238 -0.98746741 -3.97360349
Si 52.48027023 9.20561804 47.66739212 -0.00374714 0.00894242 -0.00477135 -0.26266626 0.70660876 0.59290918 -3.93422055
Si 2.49702479 10.67185129 52.53147804 -0.00389327 -0.00161934 0.00429821 -1.50654948 -1.84758613 -0.39749920 -4.16297150
Si 4.07492011 6.52520067 1.85702438 -0.00204508 0.00606642 0.00452272 -0.04586770 1.19595033 0.36245257 -3.89122367
Si 1.75378643 8.02925233 50.63950655 -0.00971305 0.00199790 -0.01282451 0.56513420 1.76927218 -0.53124258 -3.69179320
Si 53.72028322 11.58524407 53.08568047 -0.00168591 -0.01509511 -0.00119193 0.20523602 0.41502705 0.16151762 -3.57481074
Si 52.93898399 11.89549975 3.75859510 -0.00085028 0.00728455 0.00000388 0.41005081 -1.00272489 -0.14895111 -4.11443806
Si 5.14431893 11.90974146 3.98946029 -0.00719544 0.01195099 0.01096178 0.12517017 0.05137664 0.50157330 -3.85497832
Si 1.94261650 15.30809266 49.51830867 -0.02113076 0.00403062 -0.00211645 0.05131310 1.60650951 1.41304028 -3.82762504
Si 52.91641622 12.93121962 1.49298465 0.00463354 -0.00035463 0.00696811 -0.14549667 0.25099543 -0.44856510 -3.94400907
Si 2.51116065 14.00475231 1.12074918 -0.00136320 -0.00501351 0.01140982 1.35521498 -0.28047666 -0.35031511 -4.11223602
Si 2.98546064 11.89378976 5.00831083 0.00540403 -0.00206487 -0.01472517 0.41487393 0.03008437 -0.17065239 -3.87821794
Si 1.30019969 12.58841771 52.20566007 -0.00534951 -0.00665016 -0.00288057 -1.26660407 0.73872778 0.04308042 -3.94339013
Si 51.33785011 9.77101736 3.65619683 -0.00649043 0.00275385 0.00628921 0.01132046 0.10705384 -0.19585058 -4.04170418
Si 52.35405616 14.78624167 10.33740934 -0.00391317 -0.00119831 -0.01721543 0.78217813 -0.27401102 0.79818669 -3.74305034
Si 2.79613265 8.32863250 7.22171647 0.00422226 -0.00805986 -0.00444350 -1.33426604 0.25906783 -1.50836241 -3.72908854
Si 1.41000912 13.96546279 3.06313213 0.01617869 0.00486218 -0.00623146 0.28204007 -1.44917217 1.72532488 -3.65800691
Si 1.66826578 12.19732094 6.86540734 -0.00292015 -0.00553736 -0.00485783 0.02908146 3.21038270 -1.40635320 -3.67867923
Si 0.57228688 15.00770227 8.85857933 -0.00402707 -0.00074549 0.00639260 -4.52430725 -0.26504204 2.61940300 -3.67996430
Si 3.83067347 13.96690203 8.10757993 -0.01444901 0.01131365 -0.00168953 -0.75679234 -0.61578944 -0.72941318 -4.01736259
Si 4.81497793 14.02390437 5.58748325 0.01196552 -0.00275352 -0.00842125 -0.26906955 -0.26404893 -0.08562562 -3.62445283
Si 1.43828568 10.55259441 8.12370051 0.00485141 0.00491015 -0.01033398 0.01826255 -2.88141638 2.19576579 -3.84351039
Si 54.41427030 12.31715855 13.15850763 0.00256996 0.00120284 -0.00420833 1.47920587 -0.09027050 0.46745950 -3.73316836
Si 2.10566973 11.78967451 14.24478615 -0.00648859 0.00945747 -0.00220642 -0.16221243 -0.32281443 -0.39999339 -3.95967317
Si 1.18673519 14.74448799 12.15228184 -0.00323920 0.00591263 -0.00351065 1.05597294 0.92744696 -0.03336090 -4.16115761
Si 0.74848457 13.35619799 10.45942627 0.00898051 0.01255319 -0.00548307 -0.96655482 -1.52443109 -0.08365026 -3.99437928
Si 54.29714889 15.31376997 13.62009076 0.00064780 -0.00016346 -0.01469015 -2.00685871 0.38918371 1.65747026 -3.96690249
Si 2.80856128 13.39762170 16.03145840 0.00505348 0.00498348 0.00004230 -1.02837373 0.67687237 0.62043247 -4.20665455
Si 2.74168277 14.67221354 14.00291917 -0.00311843 -0.00145183 0.00291270 0.64116637 0.50142815 -0.59130116 -4.18716145
Si 53.38129005 10.47785269 16.86854211 0.00092380 0.00954465 -0.00186342 1.45191601 -0.42609948 -0.37121549 -3.80368066
Si 54.22297854 14.34485606 18.73492152 -0.01115746 0.01082787 0.00658288 0.24721658 -1.10923579 0.25829770 -4.01856804
Si 2.81745975 11.68067230 18.26496527 -0.00268163 0.00079898 0.00510501 -1.29713660 0.67823516 1.06022328 -3.82266974
Si 54.28252503 14.33638507 16.02824597 -0.01230734 -0.00363757 -0.00250513 -0.09317637 0.41479009 -0.17455912 -3.59487128
Si 0.54437349 12.24212249 16.53681428 0.00114524 -0.00478498 0.00160583 0.27683109 -0.43688442 0.34276833 -3.85187221
Si 1.44695432 14.18577612 20.68263712 0.00979588 -0.00380079 -0.00600086 -0.98407030 -0.11216303 -0.01504791 -3.64271331
Si 4.05090370 12.33578661 20.52296333 0.00106520 0.00101649 0.00423874 -0.24955302 -0.07084054 0.11454988 -3.80660129
Si 3.61003735 16.19049593 17.47725209 -0.00588800 0.01257470 0.00439039 0.44832607 -0.09288223 0.15479279 -4.00630760
Si 1.10120046 8.99901336 23.52963380 0.00198745 0.00983742 -0.00264833 0.29263824 -0.35806623 -0.97337180 -4.01589584
Si 0.24961677 14.52945791 25.18017670 0.00169942 -0.00644026 -0.00030789 -1.13789639 0.05189359 -0.40058319 -3.84350657
Si 1.75993767 10.99752730 26.00956088 0.01255450 -0.00188612 0.00054410 -1.73543671 1.53978142 0.52615228 -4.00140572
Si 3.43144527 12.62042682 23.16957261 0.00283656 -0.00310757 -0.00898960 -0.57016766 -0.62318099 -0.36347669 -3.77677560
Si 3.83733237 11.20808506 25.30625486 0.00411019 -0.00330188 -0.00031459 2.05267805 1.36171144 -0.86368230 -3.93243194
Si 0.97155993 16.58657324 26.76937319 -0.00336696 0.00380179 -0.00676191 -1.30240944 1.07458371 0.76223764 -4.08536816
Si 4.66550808 13.04920338 26.96955535 -0.00930836 0.00241580 0.00663957 -0.50508878 -0.42103633 -1.05316242 -3.79262853
Si 4.63711422 14.54619693 22.21215772 -0.00187456 -0.00724899 -0.00836375 -3.07481366 0.96215709 0.18859404 -3.97816873
Si 52.55564049 12.48168032 28.27851043 0.00360105 -0.00192887 0.00300165 1.16085994 0.67586200 -1.04881305 -3.99787354
Si 52.83830686 11.51153285 31.66403397 0.00533373 0.00169016 0.00450309 -0.16402179 -0.83338201 -0.83157960 -4.14585114
Si 4.15692779 11.52874832 29.65519326 -0.00859528 -0.00592326 -0.00235049 -0.16311449 -0.96420485 -0.28203690 -3.98874688
Si 2.67407069 14.31330586 27.60968328 0.00261095 -0.01052438 0.00515880 -0.16949445 -0.12862074 -0.49640724 -3.93786216
Si 0.61278743 13.09004093 27.05552455 0.00104793 0.00624519 0.00671554 0.41882389 -0.98140153 0.23897991 -3.92458177
Si 1.95758015 15.99614406 32.66185862 0.00373344 -0.00435683 0.00030221 -0.00776666 -0.63672259 0.20296717 -3.73188186
Si 5.34440541 12.15655114 32.16484725 0.00393758 0.00513190 0.00623599 -0.33565280 -1.69739795 -1.74681553 -3.66658854
Si 4.26677362 13.92802406 29.40163820 0.01301936 -0.01451615 -0.00010777 -1.59638871 1.06844404 0.75265054 -4.12497330
Si 53.72870103 9.22585636 33.58931595 -0.00557314 0.00111854 -0.01387718 0.14869396 -0.86870676 1.54894722 -4.07001781
Si 54.09069246 13.19084593 35.16498522 -0.00046352 -0.00332943 0.00638051 -0.33124939 -0.53801917 0.30287606 -4.06040668
Si 2.39444056 10.93374941 35.09729428 0.01681592 -0.00893957 -0.00358171 0.76206169 -0.32231486 -1.37027347 -3.93857551
Si 2.48714300 13.16422826 32.63640225 0.00679088 -0.00697977 0.00289549 -0.32309380 0.09277211 -0.28197545 -3.64511085
Si 0.35324541 11.90135898 33.21145985 0.00201083 -0.00113044 0.00963783 0.45100133 0.68615229 0.64236306 -4.04379463
Si 1.21583245 14.91026035 36.30726282 0.00224964 0.01010879 0.00457891 0.46943292 -0.37979937 -0.03604116 -4.03961658
Si 4.15368675 11.64100513 36.58564850 -0.00370649 0.00058611 -0.00014077 -1.00027007 -1.05403209 0.59510525 -4.12902260
Si 4.71035953 13.44739443 33.82056793 0.00741559 -0.00714327 0.00170908 -1.38536954 1.74428436 0.54639646 -3.83855891
Si 54.55535469 7.93051088 38.28679111 0.00081201 0.01097333 -0.00938588 -0.24979794 -0.14204165 0.14238413 -3.47240186
Si 0.14014378 14.28860044 40.94803343 0.00493151 0.00614717 -0.01770261 1.54397598 -0.40521055 0.14590022 -3.46107650
Si 2.87705612 11.99404800 41.77933287 0.00624040 0.00564398 -0.00126114 -0.83046386 2.09091835 -0.15696925 -4.08460140
Si 3.38508129 13.74247135 37.28971971 -0.01407495 -0.00962701 -0.00618508 -0.37519636 -0.59111648 2.57746330 -4.07377911
Si 2.52222207 12.69673942 39.52311954 -0.00407625 0.00435827 -0.00467244 0.10701734 1.48165172 0.75438477 -3.79291654
Si 0.02008422 14.04178964 43.24682831 0.00485538 -0.00828437 0.01261691 -0.56082999 -1.35079867 1.06606823 -4.07143688
Si 5.59992050 10.84544935 42.99594973 0.01426417 -0.01102764 -0.00147335 2.17435900 -1.66109020 1.27456999 -3.93859887
Si 6.20219399 10.73696751 40.01464021 0.01952184 -0.01069281 -0.00238331 -0.06898335 0.23357511 -0.23571426 -4.02391815
Si 0.14915858 6.75363974 41.53084014 0.00296118 -0.01045300 -0.00579776 0.17366602 0.17012154 0.95848055 -3.95959449
Si 0.32310780 17.81610329 49.99824561 -0.00109484 0.00305949 -0.00252056 0.03802824 -0.80114673 0.61033447 -3.74117064
Si 3.50990454 11.16596052 45.61070422 0.00397744 0.01120178 0.00280032 0.61128682 0.58066824 1.39798683 -4.08084393
Si 1.35855087 11.23190900 44.81434407 -0.00088075 -0.00412599 0.00887044 0.18411624 -3.19948012 -0.62222177 -3.70912099
Si 0.75266817 9.54347821 47.19737510 0.00349806 -0.00127839 0.00035769 0.57202089 0.91348128 -0.25595827 -3.63200259
Si 2.93968054 16.57753742 47.49957046 0.00353056 0.00608551 -0.00788393 -0.53330836 0.16678554 -0.01605511 -3.89499307
Si 2.79274291 13.91956335 47.86233727 0.00273720 0.00913235 0.00296431 0.50489044 -0.60714871 -2.07527989 -3.85387397
Si 5.34493243 12.84641796 47.05442421 -0.00385519 -0.01089713 0.00565835 -0.08419454 -0.46664380 -0.33992326 -3.61642098
Si 54.07332045 11.27212194 50.31394672 0.00321704 0.00939405 0.00141301 1.28657669 0.18708438 2.24288803 -4.22822475
Si 53.48608082 16.41943033 48.32774553 -0.00206493 0.00731531 -0.00691482 0.52477441 0.10235460 -0.38894629 -4.12240601
Si 54.52673688 15.42963491 51.89767344 -0.00045131 -0.00874585 0.01576707 0.61160138 -0.09869510 -0.15219498 -3.83482337
Si 4.39656815 13.97039211 49.40284512 0.00585982 0.01534883 -0.00826452 1.31005296 -0.15812014 1.53997546 -3.97500777
Si 1.83839773 10.95431390 50.05261775 -0.00192636 0.00222714 0.00248410 -0.53171120 -0.11926121 1.05476344 -3.79982162
Si 1.86765935 14.74473166 53.62936525 0.00425981 0.00830780 -0.00797499 -0.67354904 0.20851609 -0.78393209 -3.95300603
Si 3.34393485 17.64071271 54.65023162 0.00226460 0.00165724 -0.00634641 -0.72614960 0.83775842 0.50358883 -3.94224095
Si 4.48291095 17.34324078 49.52475014 0.00593995 0.00222986 -0.00376756 -0.52941992 0.33214813 0.00785530 -4.10831356
Si 1.15692807 16.48648161 0.94263657 -0.00979143 -0.00022287 -0.00221560 1.00658071 0.69183505 -1.00476331 -3.59509110
Si 2.92426541 18.86582814 3.84049755 -0.00317253 0.01211754 0.00171540 -0.27320525 0.24736696 0.40172170 -3.47760749
Si 5.52197367 17.20045594 0.98157903 -0.00914165 -0.00335822 -0.01049350 -0.39984268 -0.63783479 0.39281547 -3.44412065
Si 53.85362278 17.57391298 2.24132651 -0.00957128 0.00386490 -0.00447766 -0.45339429 -0.20017275 -0.44634834 -3.75252891
Si 54.47762993 18.92329107 4.17216797 -0.00241877 -0.00432167 0.01753403 0.50931731 -0.75084223 0.84677915 -4.11272049
Si 3.75217872 23.17707060 5.47974505 -0.00127609 -0.00173005 0.00530876 -0.87188427 0.96499681 -1.00143063 -3.83476233
Si 6.59215308 19.50625316 2.54855758 -0.00499384 0.00409317 0.00700208 0.26891810 -0.41395128 -0.68325806 -3.20514536
Si 3.54286396 21.81154943 0.76997550 -0.00056653 0.01378388 0.00599760 2.11693645 -2.58774984 0.96369299 -3.88688397
Si 0.70190252 16.91158810 5.47075139 -0.00278678 0.00269610 -0.00140329 0.65271375 0.45239252 0.60727084 -3.84354091