8000
Time=2000.00000000 pbc="T T T" Lattice="54.65500846 0.00000000 0.00000000 0.00000000 54.65500846 0.00000000 0.00000000 0.00000000 54.65500846" energy=-31181.12863755 virial="-1627.47943836 -84.81314694 59.66132777 -84.81314694 -1711.64246601 -11.48379607 59.66132777 -11.48379607 -1794.09845156" stress="-0.00036665 -0.00066003 0.00051211 -0.00066003 -0.00076866 -0.00011333 0.00051211 -0.00011333 -0.00151015" Properties=species:S:1:pos:R:3:vel:R:3:forces:R:3:energy_atom:R:1
Si 52.04414743 52.77670815 51.78079560 -0.00828821 0.00398025 0.00937198 -0.31465447 0.04286373 -0.22202122 -4.01788902
Si 2.48662989 3.88025415 2.69482971 0.00154111 0.00260227 -0.00898346 -1.64110975 -1.04032567 -0.07371825 -4.10066700
Si 3.46094698 52.87200925 6.34629138 0.01220070 -0.01377068 -0.01559449 -0.43096964 0.10108900 1.02188140 -4.06361389
Si 53.24096374 1.64084079 53.36023042 0.00064409 0.00145588 -0.00347182 0.40860659 0.13974811 0.11563676 -3.92030978
Si 4.18638584 2.68310772 54.47430084 -0.00176565 -0.01532258 -0.00512954 -0.23080298 1.19364813 -0.05339575 -3.90567422
Si 3.57339717 1.71451216 3.30567507 0.01004530 -0.00187164 -0.00140834 1.26210415 1.38987279 -0.30227384 -4.09486008
Si 4.55335036 53.02014981 4.29700215 0.00154781 0.00183686 0.00246824 -2.28015167 0.98124507 0.47880152 -3.99139810
Si 8.41085874 2.80419133 5.12955926 0.02564119 0.00122348 0.01456029 -0.95017593 1.03080669 -0.46515760 -3.78851533
Si 53.10474442 0.79267805 1.73613970 -0.00163795 -0.01549666 -0.01272688 -0.90871251 1.79391652 1.44054145 -4.01052475
Si 2.44290316 53.92029721 8.90980252 -0.00100097 -0.01636938 0.00486728 0.07927212 0.00604999 -0.32564187 -3.84799743
Si 3.35693006 1.46451486 9.05093562 0.01078933 -0.00686896 0.00627071 0.23654930 0.52195080 -0.50110961 -3.76418710
Si 5.24445352 0.57885288 5.18825490 -0.00047594 0.00134853 0.00490229 0.69659085 0.32352106 0.44565490 -3.70471692
Si 1.04716239 54.03004933 6.18395068 0.00747951 0.00606081 -0.00165188 0.59916247 0.75887698 0.53258446 -3.55751491
Si 1.52022466 4.41934312 10.01922690 -0.00998219 0.00192492 -0.00453391 -0.61434963 0.09395704 -0.37654963 -3.46606612
Si 5.90229108 3.74117330 11.07144250 -0.01160637 0.00749298 0.00579228 0.23977283 0.97927198 -0.72108521 -4.04749775
Si 2.59615079 5.27290255 4.68958047 -0.00744987 0.01102003 0.00347200 -1.61582115 0.26412675 -0.50684328 -4.14873028
Si 53.75894144 1.97341745 10.20514412 -0.01403539 -0.00877392 0.00478602 -0.22535771 -0.43149634 0.93143374 -3.83556056
Si 0.39242747 1.86274339 15.49740847 -0.00369816 -0.00545785 0.00378563 -0.73115014 0.96103424 1.00497161 -4.14462280
Si 54.07951853 54.05015162 12.94832885 -0.00061197 0.00170020 0.00279736 0.41778469 0.68125689 0.66359277 -3.70328689
Si 3.46080022 4.21571550 11.30721187 -0.00350975 0.01516218 -0.00862446 -0.19162149 0.14529014 1.05404958 -4.04186726
Si 2.48710068 1.92464524 11.87580374 0.00793022 0.01317689 0.00960000 -0.18508980 0.14136396 0.38878337 -3.89379048
Si 0.81548700 3.63519961 13.59286008 0.00449923 0.00263087 -0.01700342 -0.15963927 -0.95453560 -0.28409231 -3.81608224
Si 8.12721199 51.33616878 12.17092149 0.00460121 0.00525156 -0.01191550 -1.43135905 2.39864397 -5.09653056 -3.99637771
Si 2.05239004 0.86141761 14.30080038 -0.00714301 -0.01303784 0.00121459 0.89852273 -0.20557946 -0.87266481 -3.87678170
Si 53.62352642 2.69152657 19.73457363 -0.00419828 0.00970934 -0.00288722 0.13885997 0.70768332 0.95083475 -3.91053033
Si 4.36454520 2.33373599 15.97065282 0.01436596 -0.00631408 0.00202561 0.77386409 -1.96505994 0.67353925 -3.83907962
Si 5.22843227 50.56160895 18.37237758 -0.01345609 0.00298869 0.00340564 -0.14774460 0.65077975 -1.02611870 -3.88056207
Si 1.40606985 4.64404383 17.01824025 -0.00459985 0.01951476 0.00873078 -0.39358452 -0.55225873 0.39128733 -3.92019820
Si 6.15266339 52.09432925 13.67129497 0.00297414 -0.00406942 0.00613412 -1.06715894 0.97236672 -0.12640268 -3.39730811
Si 1.02109410 3.39333552 21.53802523 -0.01240285 -0.00067794 0.00908045 -0.36103531 0.03479642 -0.71554291 -3.69964862
Si 3.22907414 2.88715574 17.87818658 0.00090366 0.00313943 -0.01664759 -0.09286603 1.12343362 -0.27968812 -4.13479805
Si 5.47368324 5.25889829 18.73217482 -0.00573305 0.00176015 0.00392417 -0.62455297 -0.42820069 -0.40148637 -3.89389443
Si 51.01464715 53.88677332 16.88719400 0.00425784 -0.00743042 0.00243107 0.43601307 -0.72743657 0.20240143 -3.78298593
Si 1.12484382 54.38737797 24.22470445 -0.01312439 0.00246569 -0.00323482 0.21343240 0.80924235 0.14073026 -4.18545818
Si 6.16459789 52.02250497 24.67855173 0.02205213 -0.02176258 0.00359469 0.20283671 -0.59849983 0.68576905 -3.80926633
Si 2.45777330 5.64181728 21.74675794 0.00641271 -0.01064216 -0.00465933 0.18223818 -0.84909457 -0.10963722 -3.83843303
Si 2.38687525 3.22989952 24.36422458 -0.00665873 -0.00531217 -0.00433428 0.48442506 -0.13391897 -0.81682020 -4.20480824
Si 0.45187423 3.89573409 26.88833807 0.00129082 -0.00701405 0.01171490 0.25234886 0.33344662 0.18666315 -4.00404167
Si 1.21718113 1.62500554 25.82760605 -0.01002640 0.00191256 0.00955626 0.30989026 -0.48164725 -0.67743838 -4.06317902
Si 4.24885140 4.24422351 22.47052588 -0.00629935 -0.01818981 -0.00636716 0.22055998 -0.46906996 0.01646793 -3.82552123
Si 53.85675371 52.55892377 21.77432121 -0.02884322 0.00751227 0.00854285 -0.77076134 -0.73259719 0.50268051 -4.12082195
Si 1.55090491 0.12300729 29.05568443 -0.00653779 -0.00266307 0.00176023 0.40001184 -0.25578183 0.79788384 -3.91047883
Si 5.43071580 0.01507186 25.87876488 0.01320956 0.01015815 0.00396854 0.22848231 -0.23946225 0.01721185 -3.96872115
Si 54.58902830 1.23122289 27.73948535 0.00100191 -0.01011531 0.00830406 -0.57906679 -0.13744345 0.29111779 -4.26169205
Si 1.58034096 50.85088097 27.81458945 0.00688475 -0.01113520 0.00762791 0.53940834 2.29082298 -0.32562032 -3.78763747
Si 1.80760344 4.05288421 29.32862546 -0.00521220 0.00058572 -0.01083700 -0.99028233 -0.20995146 0.51996855 -3.95923638
Si 4.09577680 54.25588484 28.79774573 0.00183224 0.00816884 0.00581511 0.05317846 0.56383948 -0.48692685 -3.84258962
Si 3.68863133 1.66269789 25.86515796 0.00190064 0.00853635 0.00264526 -0.29071352 0.38362879 0.80698717 -3.85739827
Si 0.83542276 52.04050460 31.82640520 -0.00361539 -0.00401429 0.00580377 -0.15902051 0.48342913 -0.20747862 -3.91592193
Si 0.44479044 3.17452558 35.44742548 0.01117542 0.01475234 0.00337786 -1.01727712 -0.11680412 -1.15053564 -3.96812892
Si 1.70140112 54.15388591 35.37727665 -0.00451714 0.01041502 0.01027995 0.46349441 1.79682627 0.83078673 -3.91635060
Si 1.48734777 54.43142294 31.77898495 0.01336775 -0.00226845 0.00560100 -0.18161950 -1.59418400 -2.24561948 -4.12787437
Si 1.39700367 1.20478482 33.44532287 -0.00117894 0.00421669 0.01465732 -0.06801465 0.90740168 2.10931778 -3.93511510
Si 4.19260367 0.78275681 33.69841242 0.01644655 0.00869147 0.01144787 0.06691882 -0.00882044 0.76283584 -3.91067576
Si 0.86572101 53.94505368 39.07913041 0.00311954 0.00432633 -0.00301420 0.07718933 -0.28903789 0.29893519 -4.04782486
Si 5.99396920 3.25549999 32.48448092 -0.00247891 -0.00406684 0.00506872 0.09616636 0.07853969 -0.27277756 -4.07407475
Si 50.67123586 0.24542091 39.69066150 -0.00388437 -0.00055433 0.00072330 0.81208025 -2.47609796 0.47810215 -4.02853680
Si 52.19403743 3.52575013 39.79498609 -0.00499327 -0.00719457 0.00642108 -0.65206337 -0.04805641 -0.21724308 -3.96048522
Si 1.14868940 54.17574231 42.11395238 -0.00207524 -0.00119214 0.00501995 -0.26823461 0.57296012 -0.01123038 -3.88262677
Si 53.75943492 4.88669503 38.51280932 -0.01249957 -0.00600503 0.00119343 1.07995325 -0.15043330 -0.74137492 -4.04390335
Si 52.95850504 54.45718916 38.81498403 -0.00579073 0.01217622 -0.00082218 0.06626809 0.55056781 0.48000801 -4.00424290
Si 54.37904903 4.61608965 44.64057719 -0.00750181 0.00100250 0.01388366 -0.69104040 0.83285838 -0.12337567 -4.30286694
Si 2.79097948 2.90498375 43.38701375 0.00406455 -0.00032345 0.00477340 -0.53818673 -0.42436516 -0.70314689 -3.92271066
Si 2.41877766 1.00078842 38.49524374 -0.00547889 -0.00440168 0.01329603 1.21981618 -2.89528370 2.05969793 -3.88463902
Si 53.71580751 0.53249820 43.56314080 -0.00713556 -0.00266713 0.00291105 0.14375296 -0.68998982 -0.22417032 -3.70180726
Si 54.44789377 1.02341137 48.45579258 0.00200128 0.01142177 0.00608306 0.04087966 0.63585000 -1.37721524 -3.98515725
Si 1.69938579 52.33169945 46.45368435 0.00702016 -0.00474328 -0.00436006 0.27880424 -0.64620463 -0.45420772 -3.71930623
Si 0.98482153 2.78644403 45.20481943 -0.00029422 0.01672294 0.00585906 0.87238270 0.05345636 -0.91840366 -4.27152348
Si 51.92352286 53.98966288 47.95153349 -0.00328821 -0.00755204 0.00034807 0.65831628 2.60794348 -2.56584960 -3.74650311
Si 1.12850886 3.17885580 48.04713130 -0.00541847 -0.00114587 0.00399865 -0.65929099 0.03913963 -1.01331592 -3.91061330
Si 3.71913474 1.56379423 48.61955553 -0.00660289 0.00136369 0.00876769 -1.74050176 -0.90906791 -1.01082784 -3.95605874
Si 2.91309404 3.83685332 46.06451859 -0.00636487 0.00578888 0.01449979 0.39364386 -0.35373434 -0.72416499 -4.21991634
Si 50.78544403 53.94459803 45.68147164 -0.00385669 0.00384704 -0.00750620 1.58421427 -0.87868498 -0.31041203 -4.07447147
Si 3.05245014 3.63526415 52.35944522 0.00461728 0.00610397 0.01854925 0.29484552 -0.01413691 -0.19627914 -4.14405823
Si 54.53380438 1.84755090 51.07725868 -0.00739382 -0.00439896 -0.01623372 0.51097788 -1.03146809 0.08370350 -4.10775185
Si 2.14471688 54.28855763 47.64502363 0.00218832 -0.00020793 -0.00065192 -0.16744687 0.75352210 0.51494609 -3.91178489
Si 54.42870332 54.13740753 50.08597056 0.00560269 -0.01234991 0.00038684 0.55454114 -1.05463213 0.79419410 -3.59311271
Si 1.99606442 4.04189215 0.12506891 0.00222892 -0.01014551 0.01043015 -0.28765327 -0.18580678 -0.25825042 -4.12922192
Si 2.28163604 1.29234280 51.99019849 -0.01311174 0.00092683 -0.00596286 -0.30189071 -0.78714235 0.37382421 -3.86021209
Si 4.62132311 6.31881595 50.94136273 -0.00382623 0.00300599 0.00534973 -1.41655641 1.55383757 -0.14662550 -3.54539132
Si 51.55650010 4.56934696 0.56480622 0.00614490 0.01326194 0.00436213 0.30348376 -1.26044625 1.31661290 -4.01631546
Si 1.05685774 6.51066190 3.24812651 -0.00554282 0.00399824 -0.00125452 -0.47886854 0.16944697 -0.14726982 -3.81655288
Si 3.88469530 3.26192963 5.48410448 0.00747271 -0.01249190 0.00142649 -0.00181445 0.48400265 -1.04407984 -4.18600655
Si 54.38000992 6.60242075 0.98973310 -0.00064575 -0.01270439 -0.01307251 0.72071363 -0.67196816 -0.08051209 -3.79585862
Si 4.85393196 7.30322706 1.19415257 -0.01345427 0.00083453 -0.00441205 0.66083636 -0.35601342 0.62599123 -4.15624428
Si 2.86601215 15.65314831 2.66175272 -0.00405104 0.00733637 -0.00874670 -0.83385092 -2.19907787 -2.44880107 -3.63241124
Si 3.68757083 7.75912959 4.29188486 0.01262703 0.00785896 0.01460383 -0.30765798 -0.59787953 0.61199081 -3.99983907
Si 6.11258988 15.22712871 53.09604383 0.00534960 -0.00241058 0.00811377 1.77445430 0.08438216 0.86205877 -4.08317947
Si 54.51599125 4.54549802 4.94146714 -0.00513429 -0.00151325 0.01108288 0.39537773 -0.52793035 -0.02534474 -3.87699628
Si 1.34158548 8.84898690 7.04859144 0.00399060 -0.00544658 -0.00092853 -0.71401325 -0.80107540 0.22343883 -3.95399451
Si 2.07106120 6.19640683 6.84415102 0.00702944 0.00518599 0.00155020 0.71986967 0.40766913 0.57408267 -4.06902790
Si 1.67235336 9.00857791 4.17615580 0.01104209 -0.00929771 0.00084295 0.74553895 -1.00882649 0.18630040 -3.92384982
Si 0.78092515 4.19421997 7.32780069 -0.00263291 0.00029673 0.00013243 -0.44971611 0.02916163 0.23795085 -4.01084328
Si 0.27357338 10.72608965 8.30191602 -0.00048829 0.00652191 0.00469305 1.17994764 -1.34826857 1.33906662 -4.09481907
Si 3.06698921 7.49618278 9.18182682 0.00204415 -0.00588846 -0.00104228 0.10239882 -0.03901319 0.36331132 -3.69497609
Si 3.35275975 9.61526952 6.18408868 0.00572773 0.00885640 -0.00249485 0.75892162 -0.12942696 -0.03805488 -4.21437645
Si 53.88549811 5.47827604 10.67444713 -0.01044193 0.00151814 0.01134110 0.39184374 0.30193651 -1.05441713 -4.22958565
Si 53.63742187 8.32615395 13.89400269 0.00180189 0.00438952 0.00079733 -0.86160004 -0.05003145 -0.30485755 -4.12968159
Si 1.78134478 5.62359128 13.05316797 -0.00763108 -0.00980776 -0.00800882 1.45012869 1.38657573 -0.22047716 -3.58098578
Si 2.80794388 9.46672491 11.15019644 -0.01057172 0.01213510 0.00061482 -0.31942222 0.61621499 0.18388295 -4.00167274
Si 1.23660534 7.59641229 10.86045307 0.00747582 0.00409082 -0.00792436 -0.06050506 -0.71437366 0.50286837 -3.70752358
Si 0.79554294 9.71245412 14.29640774 0.01361693 -0.00335151 -0.00180846 0.99266425 0.21442224 0.11801991 -4.20933628
Si 3.76280162 6.35080730 15.12037801 -0.00272729 -0.00029194 0.00601438 -1.59519881 0.28361148 -0.34802032 -3.62567592
Si 4.90991701 10.65936877 11.05648580 -0.00877632 0.00981519 0.01372794 -0.28500709 -0.57632896 -0.01200098 -4.27234459
Si 1.84783356 4.68679528 19.46923531 0.00743572 0.00200104 -0.00630067 0.33080825 0.48633017 -0.30789214 -3.98973823
Si 53.70023826 8.16916418 17.71755750 0.00465970 -0.01081296 0.01097274 -0.10686591 0.45957893 0.34261525 -4.07751369
Si 3.63765320 6.75098500 18.87894772 0.01519737 0.00504356 0.00563144 -0.13331968 -0.16438610 0.39382812 -3.90699983
Si 2.90611527 9.06420871 15.42258856 0.00603364 -0.00629834 -0.00261462 -1.21505381 -0.63837242 0.39004280 -4.07334805
Si 2.00304245 8.08311790 17.47503470 0.00813103 -0.00400769 0.00600137 0.50503080 -0.52966341 0.83848959 -4.01837921
Si 54.54026806 11.11373760 20.66806066 -0.00473445 0.02036863 0.00942014 0.24635780 -0.20913640 -0.22556158 -4.16239548
Si 4.89950986 8.36240150 20.30784788 0.00337384 0.00949591 -0.00120058 0.33493111 0.07284375 -1.59777561 -4.08951092
Si 3.16356660 10.49441772 17.28593142 -0.00669320 0.00410695 -0.00044052 1.51936316 -0.06046051 0.25099359 -4.08321190
Si 0.79902349 7.01586109 21.07419668 0.00908111 0.00201096 -0.00644719 -0.24654561 0.80208329 3.65142536 -3.86000133
Si 53.35009099 8.15614390 25.02839479 -0.00643596 0.00862236 0.00005749 -1.71267328 1.11530977 1.08953571 -3.88267827
Si 0.39094327 4.63531100 24.55279618 0.00539402 -0.01070949 0.00298709 -0.44282199 0.04421572 -0.36803454 -3.87436509
Si 1.34364248 9.05702664 22.02566559 0.00647520 0.01249101 0.00027583 0.65323484 0.03628778 0.32767010 -4.01852131
Si 0.15573465 7.32959434 23.67078181 -0.00209638 -0.00377486 -0.00042720 1.22626162 -1.01585338 -2.50807077 -3.88668275
Si 0.07304470 11.17049455 26.16814792 -0.00423004 0.00646497 0.00652339 0.07366277 0.79948028 0.28281116 -3.81293178
Si 1.55383425 6.58911520 25.35932756 -0.00017468 0.00092207 -0.00833626 0.29788551 -0.58941060 0.18814355 -4.08566475
Si 3.80523959 8.52153146 22.22360380 0.00255324 0.01696330 0.01349568 -1.60286766 3.08179235 0.26205868 -4.15167809
Si 53.79337158 5.65473732 27.87438536 0.00149505 0.00146672 -0.00513843 0.23059970 -0.54914305 0.79893172 -3.95461535
Si 54.40632880 10.00630610 29.92104192 0.00512759 0.00926849 0.00050876 -0.33575402 -0.05737019 1.02583353 -4.01806068
Si 1.72923138 6.28636383 29.76542810 -0.00541575 -0.00568376 0.01463396 0.66782558 1.70057872 1.40459082 -4.01471138
Si 0.19481415 8.95880598 26.70435540 -0.00418457 0.00202158 -0.00710019 0.93913146 -0.67882219 -0.22564709 -4.01807880
Si 0.10537587 7.80063756 28.86658840 0.00049322 0.00874512 0.00466661 -0.52850970 -0.19155768 -0.21994216 -4.12658787
Si 0.88845275 9.20707641 32.01726290 0.00069972 -0.01804158 -0.00461910 0.00219971 1.28370368 -0.79862627 -4.01188469
Si 4.05415562 7.39735354 30.89096539 0.00500181 0.00909299 0.01679135 -0.88889742 -0.81478404 -0.27135098 -3.94258046
Si 2.96572834 9.67084682 30.20722341 0.00072324 0.00698252 -0.00209574 -0.52705890 -0.03595194 0.32348728 -3.57079005
Si 54.10644956 6.60244112 33.43494210 0.00995088 0.00698062 0.00529211 0.66023487 -1.76084149 -0.32426703 -4.00633049
Si 52.43544155 4.69333951 36.50490623 -0.00838726 -0.00113107 0.00475747 -0.33389369 -0.52996407 0.31920117 -3.77895856
Si 3.14750969 2.76915970 32.85561064 0.01821179 0.00548043 0.00295868 1.12193306 -0.50448710 -0.32737431 -4.21106815
Si 1.89663259 7.20309068 32.54916111 -0.01222710 -0.01775730 -0.00090114 -0.37475145 -0.66609642 -0.08824074 -3.96657681
Si 1.28079917 3.33934487 31.71601540 -0.00431350 -0.00158221 -0.00857624 -0.98012748 0.32607925 -1.00485399 -3.81191421
Si 0.83435410 5.45837308 34.99686508 0.00201099 -0.00593895 0.01053478 0.45195033 0.59967810 0.08771914 -4.06862926
Si 3.12494720 4.70348560 34.09180492 0.00264438 0.00689065 -0.01253563 -0.15879269 1.23703007 1.49980724 -4.26462173
Si 3.71864724 8.80753421 33.43824908 -0.01172605 0.00888644 -0.00897032 0.17503858 0.99741971 0.59131685 -3.95421147
Si 1.67041465 3.55882093 41.18604366 -0.00591288 -0.00323334 0.01770597 1.01290443 0.93465006 1.45793102 -3.97610497
Si 0.70277031 6.82999587 40.64479435 -0.00329635 -0.01326413 0.00882933 0.23142370 0.43808100 0.55824828 -3.90532899
Si 3.87487916 6.16331412 40.73678408 -0.00791237 0.00191693 -0.00489559 -0.08018798 1.83329043 -1.24549294 -3.80062127
Si 3.33424262 4.98146985 38.59924755 0.01612887 -0.00480330 0.00225906 0.37195507 -0.18936310 -0.16594793 -4.20738316
Si 1.01408529 5.68441899 42.92268068 0.01060231 -0.00404304 0.00979198 0.77685973 0.03260534 -1.03385812 -3.91741490
Si 2.71169422 10.15341141 42.97972577 0.00128656 -0.00087419 -0.00790386 -0.86317718 -0.87887836 -0.38039450 -4.24828720
Si 3.41938060 5.88949585 43.03860987 -0.00630649 -0.00463710 -0.00286898 0.18626857 0.54680437 0.65963989 -4.06072617
Si 4.59608503 8.20014284 42.72835446 0.00124736 0.00011248 0.00541208 -2.06468961 -0.46060976 0.70792189 -3.84624934
Si 53.08755314 8.00104598 44.05909118 -0.00465716 0.01190368 -0.00585749 -0.64817053 -1.82260257 1.77481681 -4.05034733
Si 1.49049032 9.20055434 48.21905611 -0.01272011 -0.00708407 -0.01053954 -0.14363667 -1.29453096 0.20243242 -4.20401955
Si 0.73165771 5.70835827 46.67725284 -0.00224645 0.00824153 0.00156670 -0.68106591 0.47051150 0.16842157 -3.83936429
Si 2.19478684 8.51541815 44.49354531 -0.00567227 -0.00140736 -0.00856953 -0.31607687 -0.63488252 0.81211841 -3.76092267
Si 0.29601579 8.26582719 46.20052080 -0.01262137 0.01147774 0.00166130 0.16975540 -0.37114739 -0.28049301 -4.10176945
Si 2.42501093 10.50758193 49.89090455 -0.00332857 0.00552769 0.00721957 -0.69468769 0.53909444 0.72912332 -3.85519719
Si 3.21965371 7.38813033 48.40515593 0.01572130 0.00180510 0.00173385 1.10270691 0.66040061 0.62311566 -3.83538795
Si 3.63767064 9.98431131 45.92093505 -0.01439613 0.00725326 -0.00441609 0.14881787 -0.68611008 -1.07739586 -4.01098824
Si 1.33706767 3.56073480 50.24845021 -0.00239551 -0.01997938 0.00650449 0.59510574 0.48180221 1.62525870 -4.22305965
Si 53.95299342 9.19895330 52.31434387 -0.00121062 -0.00025848 -0.01257099 1.88602099 0.45650685 -0.96689400 -3.86457419
Si 2.51196485 6.19914504 52.72374097 0.00502222 -0.00202267 0.00022005 0.52579504 0.18506181 -0.01232257 -3.83305001
Si 2.24760928 10.69666620 52.31403505 0.00185507 -0.00672104 0.01794096 -0.73001687 -0.40299296 -0.02130538 -3.84615397
Si 53.69634563 9.81768275 48.49822278 -0.00309140 0.00835404 0.00317049 -0.47332183 0.49655435 -0.69940627 -3.77482104
Si 3.48667568 8.80857682 52.96084111 -0.00619588 0.00760826 -0.00258285 0.71395405 -0.61535430 0.65942976 -3.49797034
Si 2.86737744 6.26720835 0.84584377 -0.00801972 0.00112063 -0.00033912 -1.58065046 -0.22973722 -0.83722354 -3.97482705
Si 5.92617690 8.95588256 54.61050336 0.00061607 -0.01260265 -0.00568944 -0.90329069 2.55577722 -1.16227224 -3.68590426
Si 2.20489577 9.94946550 1.54570978 0.00457114 -0.00214250 0.00219215 2.73943305 -2.60973823 -4.00347626 -3.35694122
Si 52.00094577 13.28883444 3.41926811 0.00639803 0.01688327 -0.00271064 -0.16269711 -0.05894011 -0.91410349 -3.98581100
Si 5.00983330 8.86638725 2.80253892 0.01197296 -0.00583167 0.00428908 0.47626829 1.56988670 0.78607430 -3.71194482
Si 4.16147176 14.38160612 52.65865874 -0.01082013 0.00285554 0.00622372 -0.65887320 0.59085567 0.50071851 -3.51270032
Si 54.43825534 10.57394374 0.91721963 0.00235179 0.00635384 -0.00532563 1.68479493 3.56126374 -0.97962607 -3.84603953
Si 2.83239415 17.07667938 4.24793149 0.00979365 0.01257600 0.01844312 0.83204606 2.98149610 0.03152218 -3.91369796
Si 1.24213263 10.95504043 3.00746388 -0.00303443 -0.00284206 -0.00882713 -1.40976458 3.73099273 3.33982885 -3.86033845
Si 1.17362856 15.43512097 0.76180050 0.00027275 -0.00053870 0.00370267 0.84447736 0.62783602 0.26265854 -3.70142150
Si 50.63804663 10.99582827 2.65746755 0.00846655 -0.00442352 -0.00219723 1.78624228 -0.74737133 2.37905040 -3.84692740
Si 53.88807029 12.68459430 8.04478487 -0.00556680 -0.00479373 -0.00383150 -0.72504041 0.42247859 -0.17044261 -3.87856650
Si 2.50416782 11.28481212 7.72153382 -0.01215130 0.00619376 0.00026029 -0.49039638 0.23197123 0.12189633 -3.88724637
Si 4.78128149 12.98924701 5.50246439 -0.00076744 0.01625187 0.00535392 -0.00168288 1.00019755 1.22376612 -3.80094600
Si 1.26419916 13.82049799 6.57045999 -0.00870822 0.00945728 0.00837623 -0.27096987 -0.15686325 0.14777070 -3.78039336
Si 0.82589532 15.21549512 9.59959551 0.00417443 0.00591571 0.00453423 0.69894142 0.10417706 -0.33330076 -3.62392116
Si 2.84512555 14.95972191 7.93324724 -0.00445611 -0.00843316 -0.00054540 0.31216744 -0.51329198 1.97337130 -4.08604336
Si 4.22200822 12.77909154 7.97033012 0.00444622 0.01666977 -0.00189704 0.92468363 0.79792652 -0.17108405 -4.08064747
Si 53.60912862 11.84087902 10.57431094 -0.00380536 -0.00733446 0.00172081 1.50950086 -2.01549330 -1.07879460 -3.90048480
Si 54.51975792 14.15798468 12.76812849 0.00088410 -0.00895382 0.00889596 1.08928129 0.56717318 1.12417505 -3.90210176
Si 1.85956814 11.11080092 12.60346892 0.00916301 -0.00497893 -0.00587599 -0.15663785 -0.06694700 0.13049284 -4.18767071
Si 3.67564046 14.92907119 12.35311990 0.01085893 -0.00081124 -0.00241333 -0.90946031 -1.69905311 -1.19993594 -3.99899459
Si 1.54786324 11.65776968 10.19736012 -0.00177254 -0.00124634 -0.00485571 -0.18064487 -0.34441608 0.45648830 -3.80874801
Si 1.91157080 15.68109504 14.40923620 0.00250190 -0.00028926 0.00037628 -1.39265805 0.15378189 -0.57286090 -3.84835744
Si 3.65397832 12.49722593 13.36803014 0.00376455 -0.00001996 -0.01298610 0.48161191 0.54815611 -0.50061451 -4.18126392
Si 4.91464430 16.29685623 13.61467902 -0.00626257 0.00998029 0.00401631 0.70873319 0.37070906 0.49689937 -3.73582530
Si 0.36723614 10.11504150 16.61607328 0.00837859 -0.00698589 -0.00337179 -1.77429569 -0.23499194 -0.74459574 -4.10018826
Si 0.60587535 14.52245830 18.44412682 0.00695343 0.00888550 -0.00617674 -0.24644537 -0.78525010 -0.59698647 -3.96764922
Si 1.28104345 11.12700577 18.40184177 0.00563008 -0.00467766 -0.00678278 -0.13018417 0.89386612 -0.00375694 -3.78608871
Si 2.77346345 13.37630966 15.33293519 0.00590237 0.00740067 0.00337464 2.01127434 0.30468687 -0.69135842 -4.23306656
Si 1.00284852 12.91666553 16.47231234 0.00479118 -0.00521562 0.00269631 -1.80457355 -0.84213179 2.07511142 -3.86483979
Si 53.50629612 15.44689417 20.85981129 -0.00851946 -0.00412181 0.00981732 0.93698877 0.79542053 -0.02847314 -3.63785481
Si 2.25949764 11.88088322 20.37152173 -0.00614593 -0.00842374 -0.01286331 0.84568024 -1.03092830 0.67570126 -4.01193905
Si 3.40974462 15.52343270 16.14001397 0.00297812 0.00350447 -0.00211712 1.05492366 0.86650193 0.67845997 -3.97101712
Si 53.68780850 10.45262083 22.80653968 -0.00676421 0.00262085 -0.00113319 -1.06381947 -0.22183436 0.00754392 -3.87690187
Si 0.81474720 13.39472441 22.65668945 0.00335624 0.00114848 0.00243710 -0.66474217 -1.42666122 0.64878190 -4.01264095
Si 2.36118095 8.65339872 24.95271059 -0.00125219 0.00216773 0.00537862 -0.57114306 1.42470738 -0.12950414 -3.78988194
Si 1.06735655 15.54111920 22.19958643 -0.01241248 -0.00343008 0.00930198 0.06709039 1.21489042 -1.67235915 -3.86986661
Si 3.01474619 12.28495750 22.91691722 -0.00033241 0.00146462 -0.00356405 0.49310255 -0.31251097 -2.68026441 -3.76906514
Si 1.03998453 15.68244567 25.44801388 -0.01308373 -0.00275593 -0.00247351 0.43603827 -0.45253514 0.53060967 -4.12400532
Si 3.16299694 11.96152438 25.03826048 -0.01232364 0.01464358 0.00999655 0.08878514 -0.06116891 2.71120718 -3.61150098
Si 4.42904617 14.94507249 25.30390324 -0.00343527 -0.00936583 0.00306947 -0.69537836 -1.13879154 -1.96843347 -4.10452080
Si 53.13290802 11.97632218 27.81269750 -0.00882216 -0.00575390 -0.00148437 -0.24803445 -0.41233150 -0.92646709 -4.11612320
Si 1.52359978 15.22058074 29.64994480 -0.00266198 -0.00855851 -0.01248710 -0.88984659 -0.38149166 -0.05235153 -3.82753491
Si 2.29969371 11.82436914 28.67612784 -0.00081871 0.00865774 -0.01055036 -0.08019358 0.31827681 0.09312582 -3.61571908
Si 2.03149257 14.32233936 27.28385450 -0.00427234 0.00582566 0.00388363 0.12179472 0.33478273 -0.03524870 -3.73603129
Si 52.69854987 14.33638017 28.92495363 -0.02362977 -0.00412417 -0.00693595 0.21765119 -0.44755369 0.39257154 -3.78253055
Si 3.73257312 15.48321448 32.85244643 -0.00983712 -0.01040657 -0.00818296 -1.31837267 -0.19809091 -0.97081146 -3.72202229
Si 4.32643585 12.57527182 30.57891303 0.00038811 0.01189408 -0.00967926 0.16564268 -0.10467589 -0.91995391 -3.90188766
Si 2.92750833 17.06220547 27.24749400 -0.00478385 0.01325227 0.01012383 -0.59231534 -0.40634584 -0.00516081 -3.80649877
Si 53.10692243 12.09001844 35.23085123 -0.00172225 0.00569822 -0.00252634 0.31514186 -1.12365228 -0.52190983 -3.83302903
Si 0.80715261 13.34156776 37.58073758 0.00349121 0.00316092 -0.00186766 1.03254011 -0.81945592 0.99101962 -4.08358574
Si 1.56221632 8.91030220 34.80801683 -0.00349762 -0.00670752 0.00189073 0.03914151 0.91594487 0.45445865 -3.67157197
Si 1.37797074 13.00865385 33.61565117 0.01058667 -0.00474880 0.01325894 -0.71880822 0.55588660 -1.24527666 -4.34130287
Si 0.29696993 10.98775000 33.66118678 -0.00206133 -0.00178966 0.00568015 -0.57170981 -1.07980627 0.49891037 -4.10368538
Si 3.05384193 13.00170343 36.65085461 -0.00125728 -0.00969112 -0.00492061 0.14327324 -0.42500144 0.68089697 -4.00880432
Si 3.79053097 10.45949222 36.06449024 0.01106878 0.00097883 0.00066016 -0.80139470 -0.43331900 -0.59169425 -3.94997001
Si 3.20333928 12.01088003 32.65613773 0.00253829 -0.01951386 -0.00662051 1.03814834 0.36853664 -0.56649651 -3.80365014
Si 4.34955087 8.93994784 40.36265862 0.01565974 0.01314405 0.00360388 -0.42627606 -0.34778956 -0.08743131 -3.84996152
Si 54.37792082 11.79065917 39.24815996 -0.00647281 -0.00521238 0.00118769 0.49902189 0.66062335 -1.33729129 -4.10621071
Si 1.80607067 9.72264013 40.78356232 -0.00484058 -0.01577252 0.00411770 -0.40200014 -0.33101699 -0.27687778 -3.80689692
Si 3.29188498 11.59264391 40.37311900 0.00789589 0.00125556 0.00142620 0.94340973 -0.07218516 0.08401468 -3.92750192
Si 4.67519391 11.30661131 38.07105959 0.01829565 -0.00435834 0.00072011 -1.56006236 -0.23978382 2.55186927 -3.76939893
Si 1.97650276 14.23788946 41.96555569 0.00209030 0.00744404 0.00373075 -0.15849695 -0.45206144 -0.19605285 -3.71396661
Si 4.03851751 12.00445629 42.90503883 0.00829753 -0.00007914 0.00016818 0.74855012 1.16095367 -0.92993776 -3.87637019
Si 6.60614135 10.21611040 39.99786525 0.01221469 -0.00694032 0.00045770 0.48541769 2.76053143 0.41281036 -3.83601975
Si 51.61825195 9.89944017 43.12929058 -0.00163748 0.00248787 0.00188025 1.63399136 0.06353146 -0.53912041 -4.11003971
Si 51.62341234 15.52373503 45.89725522 0.00848594 0.00011850 -0.00931159 0.08205295 -0.20035879 1.45383739 -3.88036418
Si 2.19070977 11.24355381 47.26925721 -0.00820045 -0.00117481 0.00435635 -0.45748217 0.69443083 -0.56369013 -4.22873878
Si 1.38335842 12.15398785 43.17696139 -0.00197257 0.00252862 0.00313085 0.28972197 1.08898121 -0.91615802 -3.85655570
Si 54.42043076 11.03377598 46.44581605 -0.00022350 0.00983745 -0.01479273 0.72025856 -0.39881282 0.09342632 -4.09854507
Si 0.43373738 15.81010860 47.97321742 0.00522906 -0.00487568 0.00827901 -0.01203752 0.59356517 -0.02918625 -3.53259063
Si 9.33133539 12.03153956 46.86262985 0.01674341 0.00143873 0.01141250 0.09436107 0.47508647 0.13494876 -4.04145908
Si 5.04419798 13.68983946 46.03776810 0.00392029 -0.00820346 -0.00379590 1.84673926 0.70628175 -1.07976387 -3.83473611
Si 0.88053562 12.83693199 50.28620185 0.00171294 0.00124093 0.01394472 1.05200177 -1.67241554 -1.33591834 -3.92880893
Si 50.73205882 16.91668578 53.45565183 -0.01256957 0.01323521 0.00551816 -1.53555900 0.10824765 -0.80349648 -3.94151759
Si 52.55168726 17.43595432 49.61430919 -0.00421128 0.01745533 -0.00310659 -0.22131069 -0.02726030 0.34184438 -3.86473870
Si 3.57895904 13.15938793 47.64718797 -0.00456735 0.00994789 0.00175104 -0.59260176 -0.03492993 1.89227346 -3.85384631
Si 2.39698768 13.32364007 51.93426309 0.01326290 -0.01121616 0.01368099 -0.66011864 -0.95760968 -0.19185558 -3.94995570
Si 52.47072931 15.97208495 51.71512311 -0.00970016 0.01413330 0.01182882 0.04034059 1.66698366 -0.30782712 -4.02579212
Si 3.98810976 17.88834542 52.33131782 -0.00459158 0.00507424 0.00590231 0.48473899 1.15479895 1.09012647 -4.09513378
Si 2.50697318 14.80285134 49.91365893 -0.00185283 0.00186341 -0.00218570 0.22924489 0.31874514 -0.50501367 -3.70805049
Si 54.04733397 19.24973514 50.43595101 -0.00395604 0.02005623 -0.01163458 0.07642886 -0.48179075 -0.20402681 -3.44972444
Si 1.85467762 19.50695096 4.16109740 -0.00180509 0.00608050 0.00346531 0.65269271 -1.85085881 1.78997862 -3.86186004
Si 4.49214268 18.48012624 2.62984010 -0.01374075 -0.00124418 -0.00728039 -0.14119308 0.91321628 0.06847790 -3.90808272
Si 52.61178680 17.36126717 1.83200768 -0.01284384 0.00935764 0.00302309 -0.40983047 -0.01526653 -0.26953065 -4.02680016
Si 54.61633563 17.82135891 2.94113696 -0.01470963 -0.00145531 0.00429967 0.65720750 0.72009572 0.08504467 -4.06443882
Si 2.33205744 23.89134107 2.11362271 0.00723061 -0.00629519 -0.00582638 0.35678708 -1.54945965 -0.99068151 -3.17486000
Si 6.92715511 18.42042399 3.09043099 0.00916685 0.00515987 0.00684638 0.07851216 -0.41105792 -0.09825605 -3.75851464
Si 4.14828102 21.19513079 2.28023878 0.00409783 0.02197383 0.00046241 -0.12131660 -0.43348303 -0.27913006 -3.99383998
Si 2.08815182 15.98819037 5.99730951 0.01920899 -0.01117854 0.00802453 -1.23925561 0.48564443 0.74770281 -3.96796775