8000
Time=2000.00000000 pbc="T T T" Lattice="54.65157439 0.00000000 0.00000000 0.00000000 54.65157439 0.00000000 0.00000000 0.00000000 54.65157439" energy=-31142.41272449 virial="-1744.22790344 -18.85201081 100.50824474 -18.85201081 -1726.87649030 -34.49660870 100.50824474 -34.49660870 -1502.18412941" stress="-0.00143793 -0.00013893 0.00048466 -0.00013893 -0.00082072 -0.00026163 0.00048466 -0.00026163 0.00033657" Properties=species:S:1:pos:R:3:vel:R:3:forces:R:3:energy_atom:R:1
Si 2.94463453 1.22387111 52.17733091 0.01688942 -0.00541984 0.00089404 -0.72678071 -0.06554279 -1.18361425 -3.65761399
Si 1.19261130 3.22708586 4.95023412 0.00066720 -0.00112830 -0.00063119 1.07054806 0.01376437 -0.33548346 -3.88904452
Si 2.99019826 54.08699887 3.78288241 -0.00622497 0.00298431 -0.00511722 0.15504268 -0.52575538 0.92572880 -3.80500436
Si 4.98248350 0.90145093 3.07698611 0.00315095 -0.00528867 -0.01103007 -0.08767068 -0.41636887 0.01203543 -3.67071748
Si 1.31040254 3.70950107 1.73209372 0.00438900 0.00109599 -0.00730114 1.00399080 0.86479366 -0.15101075 -3.67013669
Si 2.66889154 1.18255121 6.18356041 -0.00105451 -0.01750216 -0.00238939 -0.09251088 0.78287303 -0.94531894 -3.78032327
Si 6.76058440 53.45160543 5.30303755 0.00466775 -0.00563641 0.00914783 0.57035249 1.23410585 -0.08956116 -3.78136039
Si 4.81032053 3.67770088 1.11202855 -0.00192216 -0.00281332 0.00106258 -2.01958591 2.15615395 0.75442583 -3.82451177
Si 0.74941877 53.70602771 7.69070540 0.00138731 -0.01677664 0.01970958 -0.34849775 -1.03660575 -1.07450032 -4.20709801
Si 1.23707323 2.55582125 10.47120380 -0.00139016 0.01014914 0.01582198 1.01201111 0.78386976 -3.00694638 -3.92726111
Si 4.22492739 54.53595673 7.32725341 -0.00682884 -0.00718459 0.00222524 0.80310783 -0.20990628 0.59617111 -3.81224608
Si 7.02761565 0.63809479 7.26305293 0.00376976 -0.00413979 -0.00767693 0.53356675 0.01298323 -0.91732323 -4.12198448
Si 1.88138819 0.86675035 8.39490523 0.00648190 -0.00254711 0.02833542 0.32037973 1.37323093 0.85234895 -3.81098056
Si 1.81839626 4.52258373 8.84030926 -0.00206050 0.01066453 -0.00142810 0.29866466 0.13644436 0.37172043 -3.92037606
Si 4.29227427 2.04753579 9.40422704 -0.00627150 -0.00970318 -0.00425978 1.33276591 0.60169250 -0.88754818 -3.72604632
Si 4.10269479 3.92064688 6.16310680 -0.00051743 0.01202159 -0.00455379 -1.22499019 -1.66660469 0.25662780 -3.48653102
Si 52.57077705 2.24363185 6.53187497 -0.00525466 0.00819129 0.00417258 0.44800268 -1.60929334 -1.13810083 -3.97182250
Si 54.63731250 4.75090730 11.69566776 -0.00378846 0.00256491 0.00849618 0.62475884 -0.39258677 0.82954594 -3.58185363
Si 52.56486033 54.03100370 12.88155938 -0.01047856 0.00078726 0.01300788 0.08454840 0.14390448 -0.34940769 -3.71115327
Si 3.15330196 1.59840782 11.33129299 0.00875646 -0.00222411 -0.00630408 -0.71274367 4.24259877 3.47296911 -3.82801938
Si 2.30466233 52.93544856 12.09647192 0.00483170 -0.00413362 0.00017351 1.09638122 0.06094910 0.15026122 -3.60253692
Si 2.28484040 4.21639298 14.82570013 0.00111698 0.00449168 0.00658897 -0.86629584 -0.43045339 0.30577999 -4.20022011
Si 8.12674468 52.90716704 14.04715177 0.00152511 0.00152563 0.00244505 -0.68783893 -0.24098423 0.18963438 -4.17164135
Si 4.15681927 0.33512770 13.27644205 0.00525549 -0.00377415 0.01398560 -0.81588218 0.12392783 0.20323977 -3.91734385
Si 0.15518958 2.53313922 18.36772002 -0.01570615 0.00925821 0.00121619 0.71130399 1.82810318 0.04978434 -4.12524128
Si 2.38476545 1.87899499 19.15473354 -0.00118079 -0.00113293 0.00313699 -0.07470059 0.12981796 1.02457869 -3.95915723
Si 3.50975718 50.43734902 16.11032059 0.00214991 0.01103803 0.01129187 0.22952086 0.98527791 -0.44230080 -3.76699424
Si 3.73956882 2.24501447 17.25339534 -0.00661362 -0.00282273 0.00142607 0.67123675 -1.01161718 -0.03208560 -3.87093377
Si 0.87019760 1.91912861 14.25736828 0.00095025 -0.00176122 -0.00097702 1.94423449 -0.02590627 2.22337019 -3.84691834
Si 0.25880712 4.02090435 21.01620385 0.00477120 -0.00159556 0.00299538 -0.46920608 -0.57171381 0.30225205 -3.84321618
Si 2.70151649 4.11475792 20.52596672 -0.01246314 0.00871926 0.00015284 0.30944683 -0.46539459 -0.30708221 -3.92123866
Si 4.62142555 4.45787164 18.93552247 0.00865796 -0.00671902 -0.00171922 0.78166792 0.11080465 1.33495143 -3.81654525
Si 51.71146527 53.77785008 23.15683056 -0.00175904 -0.00984252 -0.00043765 -0.09602153 -0.05183312 0.28814018 -3.39423013
Si 0.42194135 4.08867375 26.28262883 0.00683361 0.00255957 -0.00225329 0.42353353 1.55191958 0.21805128 -4.09840107
Si 4.05529114 53.08653485 27.77561165 -0.00071208 -0.00896226 0.01078835 0.25944626 0.46699894 1.24943203 -3.74552846
Si 3.18264070 5.34273238 23.95936314 -0.00654852 0.00492736 -0.00580997 -3.86189914 -2.28033692 -1.98004353 -3.75883985
Si 0.29875970 0.90794175 22.96247089 0.01256342 -0.00691195 0.00512407 0.86868072 -0.76398301 0.17173222 -3.77306533
Si 53.24439064 4.60090783 24.66413241 -0.00153364 -0.00757939 -0.00956371 0.62386835 -1.75371855 -0.68112186 -3.92034936
Si 3.20479572 2.15582937 28.54239545 0.00406883 -0.00811299 0.00322445 -1.08744010 -1.22691031 1.04421285 -4.11245060
Si 4.88873083 4.77452705 22.08770173 -0.00671611 0.00611183 -0.00172426 -0.65845150 0.51228321 0.29068619 -3.87131906
Si 0.58333127 2.06891249 25.39982648 0.00144742 0.00539871 0.00941514 -0.07186341 -2.18223438 -0.81967807 -3.64789844
Si 53.61387770 2.34455774 28.53817985 -0.00046689 -0.01450208 -0.01423671 -0.42984959 -0.54535204 0.21617168 -3.65905786
Si 2.24921241 51.28986141 28.13835452 -0.00149868 -0.00789465 -0.00160853 -0.43136527 0.51419404 0.83672523 -4.01332092
Si 1.10325392 3.36068189 28.96768795 0.00286333 -0.00149185 0.00636570 0.36094141 0.42420113 0.60643654 -3.94381166
Si 1.74142597 53.99325666 27.12385252 0.01327576 -0.00101602 -0.01150967 -0.30623251 -0.27859986 -0.52291008 -3.83558393
Si 1.99549823 3.24668032 33.48988145 0.01498706 0.00264076 -0.00279494 -3.67301130 1.02420977 -0.90874207 -3.87791181
Si 1.54088759 54.21298393 29.46558734 -0.01395687 -0.01292419 -0.00669131 0.10398458 -0.20895958 -1.26411867 -3.34177303
Si 6.94608294 2.17803222 25.07953182 0.00513316 0.01307539 -0.01231693 0.38258231 0.21307722 -0.36692818 -4.05185604
Si 1.15370391 0.03231567 31.58522946 -0.00041894 0.00145027 0.00698420 1.84571236 0.15190256 -0.02024901 -4.09622383
Si 1.29398616 53.63952788 38.24119921 -0.00125413 -0.00917531 -0.01337852 -0.75677696 -0.26498640 -0.32007223 -3.92200637
Si 2.98302282 53.87373046 32.72193792 -0.00468333 0.00558897 -0.00812705 0.33964795 1.48679495 1.85408312 -4.20385361
Si 3.16917410 2.07797433 31.80375983 0.00037121 -0.00892748 -0.00669796 -0.05002427 -0.26960364 -0.56768551 -3.55568576
Si 3.47558850 0.92545692 34.35738763 -0.01736293 -0.01146562 0.00920118 -0.12788361 -2.64537042 0.38869962 -3.81301284
Si 3.89223261 3.04256464 34.39505894 0.00152619 -0.00118376 -0.01559995 3.26210266 2.14590907 1.62395203 -3.76991010
Si 7.17081044 3.16298441 38.53895049 0.00573778 0.00316049 -0.01091299 -1.45622094 -1.14298302 -0.26037824 -3.90502715
Si 5.92814489 3.31918561 32.56925826 -0.00956348 0.00904118 -0.00643283 -2.56504595 1.67545509 0.90400594 -3.90528703
Si 52.85588977 1.29025351 39.48951485 -0.00495655 0.00246563 -0.00097965 -1.01728228 0.08410144 1.77939987 -4.10124874
Si 53.03485778 1.55791019 37.35876372 0.00195471 -0.00584200 0.00585097 0.64679138 -0.42668813 -2.57346764 -4.06103992
Si 1.07725103 53.44831198 41.57703154 -0.00138152 -0.00694480 0.01543169 -1.04561621 1.47631818 -0.72807398 -3.84614253
Si 4.18068553 0.70485612 38.46234292 0.00488417 0.00262960 -0.00906846 -0.23295915 0.68313858 -0.40531145 -3.72851348
Si 53.75282101 2.20825597 41.45314543 -0.00171797 0.00583505 0.00964869 1.14447534 -0.53954530 -1.08543299 -3.73793483
Si 51.89718760 6.58819306 43.39808872 -0.01024028 -0.00928280 -0.01059027 -1.55224115 0.50514793 -3.05123612 -3.67622590
Si 2.06855700 1.92973482 41.02616239 -0.01714656 0.00109617 -0.00501318 -0.12858337 0.99688655 0.53021711 -3.77101970
Si 3.60508732 4.23647918 39.08834391 -0.00937321 -0.00419301 -0.00649189 0.76205897 -0.76270929 -0.39338399 -4.20819664
Si 0.72761118 1.71158102 43.28062807 0.00325385 -0.00295356 0.00066971 0.03608199 -0.11055121 0.63744356 -3.94054961
Si 54.06869782 54.17116111 44.57535644 0.01188738 -0.00411549 -0.00485928 -0.03674012 2.81566909 0.20752965 -3.60304856
Si 3.33807849 54.39041334 46.91396278 -0.00272205 0.00719110 -0.00458659 -0.37605059 0.60361099 -0.86542487 -3.69093919
Si 2.68204751 1.57056674 44.86238544 -0.00876369 0.00588682 0.00878133 0.25548731 0.41471988 -0.31346928 -3.96454501
Si 0.71217017 4.52832591 44.39868393 0.01277113 0.00515619 -0.01014066 -0.22344297 -0.30902394 0.28277750 -3.51209664
Si 54.19365630 3.26386071 47.25004447 0.00122081 0.01571210 -0.00228014 0.66778767 2.54687011 -1.95591325 -3.72700143
Si 6.26447572 1.59680440 48.34485362 0.00433768 -0.00046890 -0.01324903 -2.43494225 -0.04493758 -1.05892386 -4.07996178
Si 4.44724263 3.38635014 44.53681685 0.00450959 0.00015027 -0.01337136 -0.53577404 -0.60258003 0.29830052 -4.10775566
Si 52.12475451 54.25466030 47.47435270 0.00065532 -0.00604568 0.00643030 -0.42387924 0.10202700 -1.03805557 -4.01441956
Si 0.46113092 2.54913578 50.53313850 -0.00987989 0.00136582 -0.00672499 0.02293575 -0.88784362 0.17578009 -3.84434772
Si 3.91793263 53.62455684 52.37669605 -0.00503490 0.00825512 0.00388931 -0.66457209 2.16777335 2.38412488 -3.45274663
Si 4.00234549 2.40176010 49.52243006 -0.00184455 -0.01157902 0.01037477 0.27541754 -0.11642249 -0.15499175 -3.44486833
Si 2.07535359 2.07627372 47.12825137 0.01133495 -0.01466482 -0.01564242 -0.00494293 0.04995947 0.76174423 -3.90512681
Si 0.40767730 7.14861261 0.18686281 0.01103586 0.00760248 0.00064296 0.34543614 0.20064753 -0.65743059 -3.75650430
Si 4.79132698 0.99716514 53.65732579 0.00138289 -0.00247805 0.01440171 0.42690963 -0.75859818 2.01387072 -4.06339359
Si 3.38204051 3.20743671 53.40143165 -0.00144172 0.00512501 0.02567322 0.05032438 1.19066334 0.47317189 -3.94195914
Si 51.64144554 7.23962689 3.14641572 -0.00747599 -0.01417836 -0.00427845 0.55931107 0.28591323 -1.00998706 -3.95719743
Si 0.57407108 5.38750919 3.73169346 0.00904682 0.00321064 -0.00152437 1.79566976 1.21181087 -4.17589653 -3.71628165
Si 5.74415305 2.61512423 4.76835586 0.00610480 0.00753766 -0.00669761 -0.70807642 -1.36329454 -0.02635521 -4.06280613
Si 0.73012103 10.31698560 53.05560669 -0.00947552 0.00087862 0.00730362 -0.23021144 0.33125563 -0.75972572 -3.90307164
Si 4.27641822 6.13897735 2.87255346 -0.00069406 -0.00225691 -0.00105216 0.87989111 -0.54694995 -1.17520404 -3.65019917
Si 3.94491543 14.61273511 6.71278913 0.00688324 -0.01288274 0.00693341 0.93418005 1.08255619 -2.11375582 -4.02362251
Si 5.55871653 6.76697730 4.76068927 0.00700982 0.02136968 -0.00549710 -0.10249468 0.41084157 0.54038569 -3.95930886
Si 6.23913189 10.90712878 53.31252193 -0.00864876 -0.00442085 0.00634319 -0.14963868 0.08427295 0.38962118 -3.64217496
Si 2.39733496 7.07709738 3.79951507 0.00218218 0.02184777 -0.00617446 -1.18050718 0.18414730 -0.15323078 -4.08737659
Si 52.51707769 6.03919921 8.31591502 -0.00024011 -0.00495378 0.00825071 -0.89857268 -0.36690056 0.46307090 -3.70285058
Si 2.16867685 5.08354792 6.52264296 0.02083272 -0.00312393 -0.00742199 -0.76900768 -0.12571380 0.28885150 -3.92548823
Si 52.01240036 6.69620974 6.16993349 -0.01239500 0.00824223 0.01558588 0.72906145 1.26964256 -0.22915156 -4.07888317
Si 3.64367185 8.45944648 5.40488060 0.00205360 0.00568699 -0.01822514 0.37076803 0.20669854 0.18730170 -3.72333646
Si 2.49127947 8.67085113 8.41483296 0.00690767 -0.00300131 -0.00504370 -0.08406055 0.21919386 0.05500177 -3.57426476
Si 4.63665148 7.61881143 8.26464066 -0.01094477 0.01398642 0.01160488 -0.80948544 -1.25251856 -0.68163176 -3.91045451
Si 0.64182936 8.58271085 4.44682650 -0.00109403 -0.00275567 0.00230043 0.35246670 0.13313007 0.35499895 -2.94255185
Si 54.41272370 5.65448821 9.53552817 -0.00220502 0.00458435 -0.02124929 1.23120803 0.07372937 0.43038678 -4.16050720
Si 54.18897609 7.74438952 13.15970430 0.00642678 -0.00549041 -0.00709411 2.29673046 2.60918342 -3.43897867 -3.44394851
Si 2.69839947 4.82324441 12.62954482 -0.00331199 -0.00469156 -0.00022808 -0.53543364 0.91124091 -0.24808195 -3.89585757
Si 3.85274639 7.61630564 11.80511532 0.00677085 -0.00398786 0.00425609 -0.36593509 0.10004401 -0.03772855 -3.91981769
Si 1.52156634 7.18212359 10.35902891 0.00345539 0.00351031 -0.02327898 0.45727589 1.13105828 -0.42400956 -3.93179297
Si 0.02641305 8.97965478 15.32958564 -0.00823873 -0.00752642 0.00273896 -1.83577979 -0.33268207 0.24308050 -4.08887959
Si 3.58847356 4.51946196 16.97028637 -0.01166868 -0.00547111 0.00172075 -0.76741012 1.36701948 -1.93496867 -4.04368591
Si 4.89185805 10.05359285 15.41815190 -0.00903376 -0.00167593 0.01959081 0.26924500 -0.70623884 -1.11291921 -4.08607960
Si 0.15199169 4.97169780 15.60494736 0.01512104 -0.00481420 0.01409353 -0.45226677 -0.14043030 0.87844121 -3.57183337
Si 52.19452646 7.68954879 18.41027032 -0.01338690 0.00961891 0.00093281 -0.39722541 -0.49507380 0.71265414 -3.96068549
Si 0.68096005 6.15754983 20.03485043 -0.01909946 -0.00165392 -0.00156854 0.74889266 -0.00056106 -0.75914215 -3.62102962
Si 2.04446844 7.96998445 15.78084553 -0.00511180 -0.00560020 -0.01095236 -1.10740751 -0.94075367 0.43597026 -4.37861443
Si 1.89870697 6.25241410 17.56525134 0.01274584 -0.01228201 -0.00226341 -0.77311628 -0.33530326 0.05924165 -3.97611356
Si 2.77672390 8.16728467 19.09834320 0.00078177 -0.01564334 0.00229926 -2.20102751 1.01859412 -0.32383387 -3.84347367
Si 4.57072869 7.01172708 19.11969488 0.00660874 0.00216834 -0.00428156 1.92265743 -2.45804624 -0.12034336 -3.88028407
Si 3.24250588 9.41038777 16.94606735 -0.00078350 -0.00434058 -0.00866306 0.01155171 1.32299006 1.12988102 -3.96708798
Si 52.39898671 4.73128033 20.66446932 -0.00193402 -0.00551542 -0.00304577 0.10628802 -0.22792006 0.11308192 -3.89312005
Si 53.59382723 9.29464499 23.95542312 -0.00031234 -0.00639750 0.00704783 -1.23841655 2.31375444 1.49513632 -3.89522290
Si 0.65950484 5.97633023 24.31682307 0.00109056 0.00682758 -0.01125443 0.55545580 -0.52597767 0.28067806 -4.07859230
Si 3.27258072 6.44934900 21.14044490 0.01402601 -0.02019185 0.00812530 -0.46504408 0.66712733 0.57633659 -4.12887383
Si 54.20089739 7.57656901 22.85753513 -0.00106656 -0.00414498 -0.00051035 0.79962271 -2.28523123 -1.81615272 -3.95206141
Si 53.11220284 9.49184887 26.93833664 -0.01568028 -0.00385325 0.00722238 -0.45268394 1.16917642 0.49244912 -4.05924606
Si 1.73571410 6.79464094 26.45781427 0.00764118 -0.00753228 -0.01018254 1.08135241 -0.50380553 -1.22776985 -4.11857986
Si 3.79910335 10.03370474 22.20669806 0.00876477 -0.00267858 0.00883864 0.24094851 1.16774382 -0.57529962 -4.05360794
Si 53.41549505 4.80979089 27.68436943 -0.01193226 0.00797203 0.00511071 -0.95465222 -0.09212726 0.72876032 -4.10448456
Si 52.39712338 7.23677860 31.20472437 0.00606731 0.00870825 -0.00709729 0.37126599 -0.67954886 -0.98829484 -4.38046646
Si 1.92934475 6.02402453 29.36981240 -0.01297627 0.00680893 0.00895914 -1.04546177 -1.14639840 -0.33365560 -3.68225074
Si 0.42386917 7.66250317 28.07670367 0.00052732 0.01184937 -0.00080826 -1.16263648 -0.23469139 1.18626338 -4.03210258
Si 53.94108579 5.88513379 29.76126591 -0.00206491 0.00420538 0.00091598 0.62192911 0.22059517 0.38953505 -3.98618722
Si 1.60478831 9.48322594 30.51127192 0.01128499 -0.00485260 0.00374196 0.01038164 0.20872837 0.42064121 -3.82490897
Si 3.52103762 6.15818491 31.09744296 -0.00205537 -0.00774629 0.00138605 0.69055743 0.56429556 0.04260364 -4.05196953
Si 2.39063341 8.98836333 27.84346686 0.01956280 -0.00463594 -0.02028666 0.08300251 0.46883836 1.34898287 -4.01148129
Si 54.47342685 3.64223825 31.47139122 -0.00065130 -0.00138373 0.00188038 -0.32841655 0.42023212 -0.08264682 -3.67085576
Si 0.22275085 8.33885642 36.23669594 -0.01128246 0.00826887 0.00139366 -0.90382501 -0.02545965 -0.02310819 -4.16156673
Si 2.29229314 5.38754435 35.62278976 -0.01378070 0.00446323 0.00791446 -0.77347851 -1.14650655 -0.54901515 -3.65717626
Si 1.94731274 7.55734824 32.15670878 0.00012857 -0.00721724 0.00186256 -0.10208159 1.02904363 -0.00480267 -4.12120628
Si 0.79580869 6.04819147 33.44738744 -0.00856787 0.00147479 -0.00466629 -0.37254333 -1.29950297 0.77746004 -3.73041987
Si 1.90858237 8.60162633 34.57015110 -0.00294589 -0.01040654 0.00646587 -2.12073401 2.02997756 -1.77587295 -4.11643219
Si 3.44963368 7.46689989 35.44000824 0.00442057 0.00023490 -0.00866085 2.96681964 -1.47717810 2.03253084 -4.42773247
Si 5.68769639 7.25183172 34.58046262 -0.00092887 0.00061620 -0.00915599 -1.22905064 -1.49096775 -0.06795472 -4.32137203
Si 53.75865556 6.89318700 37.82243948 -0.00472652 0.01053703 0.00411975 1.05350100 -0.58825894 0.02727556 -3.87488914
Si 1.58012993 8.01432699 44.54600325 0.00090848 0.00844379 0.01715912 -0.26540872 -1.87423550 -1.28712851 -4.16562653
Si 3.23617070 6.36731485 39.64452880 -0.00460918 -0.01030144 -0.00336964 0.05860269 1.74516749 0.49731225 -3.84220862
Si 3.67258897 8.35377912 37.69679037 -0.00325060 -0.00254462 -0.00291825 -1.33671629 -0.14015949 -0.12880802 -3.94132304
Si 2.96471074 3.06408348 37.17014380 0.00851957 0.00663082 -0.00876163 -0.42154723 0.07397664 -0.59264191 -3.83284736
Si 1.98372462 10.21292913 43.65204942 0.00943150 0.00692743 -0.01640581 0.31587705 0.50951068 -0.37533844 -3.75731587
Si 5.23244456 6.99985882 43.40563016 -0.00599902 -0.00103826 -0.00628505 0.41438284 -0.02425762 -1.75201046 -3.59118676
Si 4.45371117 8.23906842 41.03020830 -0.00221350 0.00063944 -0.00463689 -0.07373491 -0.87260979 0.34847577 -3.88210654
Si 52.63453855 5.20200587 44.73251211 -0.00765513 -0.00429578 0.00593309 1.34002337 -2.49893093 3.41402006 -3.84038377
Si 1.20695739 9.22914536 49.02105600 0.01197899 0.00846160 -0.00035081 -0.18193153 -0.89939141 0.60795520 -3.90876889
Si 3.88092784 3.98596962 47.10861967 0.00400095 0.00512240 -0.00270809 -0.28481603 -1.30250189 -0.85984144 -3.87556672
Si 2.59955386 6.08848163 46.09785761 -0.00350360 -0.00469407 0.00701863 -0.51633976 0.33667075 -0.04450846 -3.55966544
Si 0.36035202 7.59672075 47.52410619 -0.00032973 0.00800419 0.00139431 -0.22187263 -0.48182683 -0.37327815 -3.77750230
Si 3.65450867 9.01472378 49.67342208 0.00879211 -0.00217912 0.00420026 -0.31655312 -0.07409072 -0.27763030 -3.61125302
Si 4.70715234 7.81493700 46.96471123 0.01051921 0.00809542 0.00466122 0.32293636 2.07775044 -1.17266938 -3.76893592
Si 6.32454398 8.00950028 45.16191817 0.01251096 -0.01123181 -0.00239415 0.25186166 -0.12076646 0.69465467 -4.09792805
Si 54.07880112 5.39207158 48.67391197 -0.00710356 -0.00128724 0.00062943 -0.38208582 -0.50831294 -1.05903935 -4.29723549
Si 1.80018839 8.12831576 52.62004949 -0.00577450 0.00297592 0.01232585 1.38299204 -0.00936419 2.05563429 -3.68348289
Si 54.43410249 4.13603786 52.64493944 0.00236056 -0.00087922 0.00133772 0.20124160 0.19154745 0.24802634 -4.04048538
Si 3.15984160 5.52203276 50.20093712 0.00143589 -0.00742001 -0.00184211 -0.58469012 -0.31228143 -0.10855454 -3.76316953
Si 0.68694849 4.91730936 50.57012425 0.00678248 -0.00404531 -0.01381330 1.24099246 0.51899678 -0.16696653 -4.28140926
Si 2.71918387 10.87218364 50.99180872 0.01705844 -0.00158093 -0.00975686 0.07113719 -1.58665073 2.11523525 -3.86024547
Si 1.61087405 5.18894949 53.95790665 -0.00993554 -0.01133746 0.00664016 0.28081976 -0.80807301 0.60977453 -3.92689252
Si 3.62585225 10.02871582 53.60065197 -0.00028221 0.00170373 0.00216005 0.36416745 -0.04798629 -0.23784951 -4.02705002
Si 50.20620799 12.35688886 52.14902764 -0.00494188 -0.01346021 -0.01470542 0.12065075 -0.23505113 -0.57786050 -3.29013324
Si 0.87764345 13.48853440 2.95509996 0.00571379 -0.00492613 0.00035807 -0.32427773 -1.52827099 -0.53908831 -3.76704907
Si 4.85683832 10.33584417 3.94465730 -0.00819113 0.00209447 -0.00037904 0.13457417 -0.40177360 0.43611261 -3.57212663
Si 3.01478893 16.03461644 0.52152229 -0.00797075 -0.00570341 -0.01369255 -0.37012134 -0.98380917 -0.64802170 -3.84670377
Si 1.99478901 12.83291933 0.69737506 0.01091167 0.00658370 0.00562832 0.12533883 -0.11162120 0.35618460 -3.60213733
Si 2.01802819 17.50233203 4.26588118 -0.01205372 -0.00299262 0.00251685 -1.52394006 -0.13463610 0.52607490 -4.01572037
Si 1.73220719 11.20065613 6.58673250 0.00684376 0.00127381 0.00614779 -0.11510485 0.20515788 0.32973754 -3.64474320
Si 52.45534770 13.21936599 49.97591525 -0.00734002 0.01091621 -0.01545217 -0.00243109 -0.11666274 0.27926511 -3.66881776
Si 51.63446962 9.37590926 4.36687496 0.00253481 0.01111433 0.01002913 0.92702848 0.62383589 -0.14067006 -4.08061981
Si 53.22746693 9.75679261 10.50013151 -0.01916695 -0.00825271 0.00375336 -1.39732176 -0.23078870 -0.15661755 -3.88103938
Si 2.64094325 11.37240766 9.33896382 -0.00767403 0.00107483 0.01209594 0.01832983 -0.34403221 -1.79942845 -4.09798908
Si 5.98284630 16.34461636 6.32782429 -0.00786637 0.00905435 -0.00940433 -0.91031012 -0.03915751 0.26954794 -4.04569912
Si 0.57543496 13.63155354 7.12724860 0.00857903 0.00721610 0.00865247 2.33249874 -1.47898912 1.84025890 -3.58241391
Si 53.83660860 15.05434937 10.24467939 -0.00607059 -0.00935398 -0.01261835 -0.02904827 -1.31228448 -1.62722480 -3.63366437
Si 2.50040495 11.16841961 11.63017291 0.00627591 0.00413716 0.00679115 -0.13542088 -0.22622871 1.26269904 -3.85811543
Si 3.49329937 13.96567362 8.72591923 0.00117256 0.00892169 -0.00011187 -1.12754022 -0.81828570 2.68218318 -3.74977374
Si 0.66272936 9.33746060 11.32114111 -0.00236720 -0.02065522 0.00815106 0.66220675 -0.77564484 0.83812458 -4.16558743
Si 53.71688959 12.35122754 11.71880567 -0.00014252 -0.00226612 -0.00317178 1.90146691 0.24747536 -0.88606601 -3.92641282
Si 1.93233481 11.88872133 14.31127942 0.01561225 0.00655044 -0.00815538 0.74165378 0.41369699 -0.36056691 -3.95091605
Si 54.47930176 11.53185362 9.56171707 -0.01439367 -0.01045297 -0.00072011 0.41376787 0.08376342 -0.27665742 -3.97634006
Si 3.15489499 9.35674798 13.38819120 -0.00293493 -0.00708491 0.00617764 0.47939709 0.42633296 -0.13174747 -3.82324433
Si 0.59888814 13.72668634 13.40998062 0.00625667 0.00174162 -0.01208218 0.14886965 0.04741359 -0.50587281 -3.86680055
Si 3.90457250 13.03993001 15.08388382 -0.00780765 0.00455910 0.00352122 0.98573862 -1.00041914 -0.81783044 -4.13121891
Si 2.42269530 14.01453045 11.33699538 -0.00560088 -0.00330030 0.00242856 -0.66928361 0.55111454 0.39325637 -3.75365806
Si 53.22394331 12.55445372 15.19545906 -0.01349222 0.01017108 0.00224038 -0.47042249 -0.38165453 -0.60517956 -3.85977960
Si 0.23225173 15.04628448 18.49580030 -0.00080786 -0.01577487 -0.00459387 -0.04854184 -0.42410970 0.65160018 -3.94770360
Si 2.30191180 11.61262997 17.79892370 0.00941682 -0.00233853 -0.00271483 0.66639262 -0.13050604 0.50913505 -3.89311910
Si 2.49875871 13.84211235 16.62602374 0.00453490 -0.00096480 0.00661862 0.15671229 1.76050764 1.05276817 -4.15931892
Si 0.35378658 12.80718451 16.67414101 -0.01281493 -0.00104735 -0.00479710 0.14257371 -1.02684531 0.91799130 -3.93400550
Si 0.00906088 11.17386706 23.00783133 0.00058997 0.01302399 0.00179900 -0.85729271 0.13227771 0.30840003 -3.28982139
Si 3.23890836 13.49717248 19.31912694 0.00493468 0.01048808 -0.00480949 0.58830882 -1.02250570 -1.01995964 -3.74725270
Si 3.72511314 15.99146659 17.39085571 0.01334446 0.00147869 -0.00939285 -3.39639580 0.04264906 -1.53331998 -3.88905025
Si 2.29035471 8.29937509 22.68904800 0.00736887 -0.01508198 0.01066383 -0.27590770 -0.24432892 0.08855636 -3.88327098
Si 50.72755722 12.09255923 24.66779854 -0.00997232 -0.00481348 0.00018321 0.34678531 -0.47395229 0.45250332 -3.48043370
Si 1.61531271 8.87989029 25.07118690 0.01030179 0.00259339 -0.00679901 0.66469608 -0.14580730 -0.17801522 -4.05819702
Si 1.29961220 12.90715576 22.06550468 -0.00372666 -0.00261680 -0.00143416 -0.80489945 0.02802187 -0.93291080 -4.02952385
Si 3.02980849 12.42660949 23.36613880 0.00163229 0.00771497 -0.00002183 2.02791995 -1.47493359 0.79685296 -4.12661934
Si 53.74056833 15.07712484 24.73851258 0.00662445 -0.00309940 0.01688509 -0.13135289 -2.57086259 -1.11256136 -3.76144338
Si 3.39017232 12.26330563 25.90384457 -0.00876384 -0.00832969 -0.00138719 -0.26892477 -0.96793421 -0.63908267 -4.20877838
Si 0.85135932 12.64808653 27.43434411 0.00753234 0.00848227 0.00510909 0.01115645 0.31267919 -0.37315640 -4.16802788
Si 51.49368417 10.32781457 29.03202627 -0.00296204 -0.00814343 0.02152177 0.94593424 0.36704040 -0.40324686 -3.87674594
Si 3.19732297 12.65875039 28.24524085 -0.00039447 0.00717666 -0.00632248 -0.35428046 1.17848074 0.20173563 -4.02107048
Si 4.08898334 10.90493780 29.55329913 0.01461820 -0.00116638 -0.00540179 -0.12310833 0.41254395 0.72508550 -3.94871306
Si 4.81511747 14.66258490 29.30151760 0.00168854 -0.00493548 0.00131220 -0.87034902 -0.91122122 -0.65838446 -3.81163669
Si 0.23964565 10.73038447 28.58707726 -0.01366488 -0.01139052 0.00407284 0.15705092 -1.53431901 -0.18404001 -3.89185262
Si 2.16200085 16.96886405 30.22639236 0.01122437 0.01018343 -0.00971328 0.24247621 -0.19074225 -0.89408465 -3.95042777
Si 5.74505794 9.65813063 31.12030083 0.00013592 -0.00570402 0.00510243 -0.11266810 0.37400639 -0.07690658 -3.96031499
Si 5.63435958 16.90799746 28.74088412 0.00603620 0.00813827 -0.00258401 -0.14119074 0.57218203 -1.06457439 -4.04760361
Si 0.00981860 10.75715505 32.14843695 -0.00603308 0.00245253 -0.00439372 -1.20146292 -1.76428568 -1.87747145 -3.85664058
Si 2.26021083 11.46830702 37.58893028 -0.00633659 -0.00109248 -0.00180095 -0.62989476 0.82928956 0.62471390 -4.24633980
Si 1.91335417 11.01943821 35.32182868 -0.00989419 -0.01421175 0.01472109 0.68865202 -0.04875293 -2.10500455 -4.02189159
Si 1.22586622 14.23830859 32.12874819 0.00997312 0.00748719 0.00294323 -0.24375194 -0.48030186 0.12213358 -3.92093062
Si 0.56805629 12.26883084 33.59103469 -0.00934470 0.00204401 -0.00472900 0.48830366 1.59088288 2.65147710 -4.13711643
Si 1.66717975 13.72060412 37.97746002 0.00638610 0.00237440 -0.02497036 0.08900523 -0.07087803 0.48361843 -3.83136678
Si 3.24300749 10.06919466 39.56556396 0.01301756 -0.00335988 -0.00498140 -1.88114595 -1.68636633 -0.07437432 -3.89784598
Si 4.50741583 11.76295652 34.23502485 0.00498118 0.00529907 -0.00171634 -1.65124869 1.30788931 0.86721145 -3.84653163
Si 1.42876183 7.63233254 39.00430225 0.00072525 -0.00469088 0.00156776 -0.80647889 0.18448597 -0.62070210 -3.90357757
Si 54.30093528 13.03727895 39.82767363 -0.00197677 -0.01126085 0.00610137 1.55295086 -0.72883841 -0.51487688 -4.08910370
Si 2.24210138 7.42601997 42.05981924 -0.00187708 -0.00711294 0.00619826 0.62539223 -0.78347203 0.53678789 -4.00074387
Si 3.98979316 12.40814040 42.02292271 0.00015776 -0.00428956 0.00209132 0.22778839 0.91406022 0.69964087 -3.96949840
Si 0.95349167 9.06537444 41.00770775 -0.00406913 -0.01565821 0.00256397 0.26355594 0.50362987 -0.59798193 -4.21592236
Si 1.46868441 13.04141327 41.60511736 0.00194116 0.00883519 -0.01728317 -0.02680397 0.30905974 0.05971774 -4.00764275
Si 4.47832310 10.52773035 43.88197753 0.00134129 0.00331524 -0.00095373 -2.17997277 -0.72845477 1.16896838 -3.85891271
Si 4.81910387 11.52772390 40.03711196 0.01606996 0.00909916 0.00802775 -0.82238901 1.93186539 0.78994748 -3.87540746
Si 1.37373232 9.55435230 46.14630091 0.01691676 -0.00648595 0.00766494 0.15439013 1.40283483 1.15535820 -3.91403604
Si 0.05479588 12.52410525 47.96878043 -0.00415794 0.00371227 0.00415267 -0.14411655 -2.74434513 -0.47958207 -3.98715901
Si 4.12179029 10.11333406 46.31814123 0.01053644 -0.00586324 -0.00078746 0.15294895 -0.09196858 -0.00816657 -4.14643192
Si 2.27810754 13.11106652 44.05631975 -0.00237359 0.00140885 0.01085362 1.58525968 -0.10615011 -2.52867979 -3.60812211
Si 2.32260440 11.72111548 46.91409883 0.00155442 -0.01139672 0.00443073 0.23337309 -0.99168190 -1.00537534 -4.10497761
Si 0.37613996 17.18495048 48.47967278 0.00778980 -0.00779505 -0.00214223 -0.43203545 0.18607724 0.15963740 -3.73209739
Si 6.17653668 11.28519998 47.54954351 0.00701656 0.00097463 0.00833690 0.62670797 -1.01429123 -0.74179607 -3.92276549
Si 5.45660656 12.69460049 45.56230366 -0.00895844 -0.00148958 0.00146508 -1.06081530 -0.67081428 0.12343168 -3.92156196
Si 2.49883499 11.99047456 49.14826587 -0.00666039 0.01588297 0.00287157 -0.32988334 1.94663686 -0.28943774 -3.91815925
Si 50.43458006 13.36745492 48.75243080 -0.01969112 -0.00840759 -0.01123752 0.08023080 0.23053934 -0.47511572 -3.97638583
Si 2.32153239 13.85333249 51.11481190 0.01227318 -0.00390268 0.00409779 -0.36146164 0.34017536 -0.15607941 -3.66513467
Si 7.21909880 14.54186439 48.30573451 0.01617011 0.00842961 0.01233472 0.28285447 -0.53921714 2.16920307 -3.96043897
Si 3.24913494 12.43494235 52.85836632 0.00560806 0.00506901 0.00909395 -0.21304226 0.09869401 0.36619063 -3.97459769
Si 53.89302091 14.64787870 51.42816182 -0.00440775 -0.00917384 0.00439871 0.40089384 -0.38951658 -0.77895141 -3.16690969
Si 4.52385626 14.54688637 52.56225474 -0.00812614 0.00781675 0.00591881 -0.56746492 0.42374825 -1.76854008 -3.81746459
Si 3.72094571 16.42532487 48.27116066 0.00330769 -0.00065589 -0.00032136 -0.42758146 0.59743379 0.98220344 -3.82112479
Si 51.20316432 17.86657529 52.16901054 -0.01364265 0.00035081 -0.00271104 -0.99780723 -0.50664736 -0.78745401 -3.63687348
Si 1.50498803 20.66566595 1.49004873 0.00969976 -0.01501310 -0.01352577 -0.95447084 -0.27762425 0.32683897 -3.50753140
Si 4.05383399 18.45439798 3.67675719 -0.00781600 -0.00575346 -0.00106977 -0.11620537 1.78516233 -0.40848374 -4.19038391
Si 54.24463145 16.84969615 54.44101021 -0.00858029 -0.01237127 0.00401371 -0.78279391 0.80075747 2.22071242 -3.55050206
Si 3.81432764 20.83123584 2.37376492 0.01370134 -0.01088222 0.00189031 1.08311863 -2.42587310 0.38233075 -3.98317456
Si 3.55201756 18.49076888 6.09478189 0.01444407 -0.00227531 0.00381819 -0.33543944 0.35314959 0.58821645 -3.35611510
Si 4.51120407 16.76838714 2.06911280 -0.00596425 0.00025956 -0.00058030 0.75957370 -0.73147378 -0.22652265 -3.61950469
Si 4.52078401 22.91538526 3.23428557 0.01090155 0.01016029 0.00275324 1.44017375 0.57559395 0.71814615 -3.63180566
Si 0.44318123 15.57445132 3.68991113 0.00507793 0.00302525 -0.00399559 -0.33029787 1.56344971 -0.69879723 -4.18912125