1536
Time=500.00000000 pbc="T T T" Lattice="25.43811607 0.00000000 0.00000000 0.00000000 25.43811607 0.00000000 0.00000000 0.00000000 25.43811607" energy=-202.08345883 virial="-3.65850206 9.52846258 14.14593273 9.52846258 -27.78907033 -17.92779304 14.14593273 -17.92779304 -10.68121438" stress="0.00243127 0.00057885 0.00085936 0.00057885 0.00096535 -0.00108911 0.00085936 -0.00108911 0.00200465" Properties=species:S:1:pos:R:3
O 3.83471693 10.60695303 12.74461387
H 4.39309719 10.83275067 13.50137039
H 2.95623907 10.52756629 13.13357949
O 1.89514376 7.27141870 3.43469166
H 1.56475597 7.67879266 4.26361020
H 1.83091738 6.33321793 3.59415409
O 11.57615011 4.68733177 1.45393993
H 10.66990196 4.92624413 1.52572188
H 11.93673207 4.84790636 2.31084308
O 8.00435165 0.72039342 0.97916008
H 7.24968253 1.18712273 0.72736127
H 8.52835477 0.95946654 0.27166515
O 0.87514725 11.89534591 12.57069172
H 0.20364313 11.65618445 11.90024143
H 1.53076752 12.30683384 12.05144409
O 2.16065500 8.79754131 1.23052973
H 2.08514355 8.32915710 2.03939188
H 2.81212375 8.27887233 0.67275777
O 5.23183128 3.88120676 3.19186568
H 4.54149962 3.24810744 3.28655199
H 6.08035153 3.43853791 3.29021250
O 5.60482697 1.17697853 6.58662842
H 6.14293510 1.31103902 5.77648888
H 5.31651439 0.28425044 6.49926713
O 6.86313760 4.13707357 7.20839064
H 6.05397653 3.62112340 7.08949482
H 6.47373082 5.04934844 7.26430138
O 3.44265843 4.13671362 8.80383018
H 3.42229813 4.17648017 7.85510452
H 3.62940158 5.08592487 9.01374874
O 10.69871012 0.68651261 12.60002853
H 11.28036705 25.36025224 12.62512915
H 10.25238887 0.63493870 11.74002603
O 4.68492813 8.08407448 4.24071920
H 3.76728689 7.84058739 4.05062027
H 5.06321885 7.40607521 3.70175313
O 1.32625110 5.11880714 10.16310202
H 0.94395080 4.71447125 10.90334675
H 1.93559127 4.48487223 9.75122388
O 0.17141646 24.83562935 8.57886086
H 1.04163052 25.19942289 8.78654346
H 25.13094967 0.25054972 8.53672306
O 10.07405498 6.63683744 9.16157160
H 9.41715312 6.95869777 9.72904415
H 10.84364760 6.41051520 9.69908489
O 1.15711506 8.68089476 5.43495663
H 1.66673145 8.92636117 6.21462357
H 0.27111820 8.45569064 5.74530272
O 7.88517213 8.21761266 12.25152033
H 7.83714978 8.98843512 12.91987432
H 8.34217488 7.44850389 12.59525285
O 4.59935286 10.81908793 4.35798177
H 4.50301904 9.84503640 4.25751917
H 4.70256894 10.99122802 5.34083810
O 8.97121850 5.37659804 1.26403956
H 8.42574883 5.72364550 2.03365034
H 8.38466923 5.06041401 0.54488876
O 7.50378706 8.88602143 7.15398577
H 6.95790707 8.06961883 7.31712483
H 7.31357180 9.42704049 7.95082757
O 7.98223757 6.43991844 3.56595917
H 7.13310796 6.61793201 3.16409850
H 8.41717070 7.25417269 3.85159731
O 8.69264596 4.27611750 4.88172261
H 8.00138357 4.05044371 5.50261964
H 8.36923172 5.11971133 4.51568915
O 10.73454706 25.32407761 2.32276298
H 9.93100887 0.38243755 1.94914161
H 10.61405260 24.41601430 2.02514584
O 7.93362281 4.32282317 11.52946236
H 7.08206365 4.63936643 11.21266702
H 8.34998605 3.83829051 10.80058169
O 9.35574019 11.30567009 7.44237693
H 9.72049736 10.44352660 7.70636466
H 9.97398865 11.67139721 6.82290294
O 9.35757348 9.90746824 2.61850029
H 8.56739254 10.47484497 2.53495066
H 9.28685583 9.62690644 3.54661310
O 3.80143992 3.54432601 6.09128482
H 4.07585264 4.11812075 5.33882458
H 3.06225955 3.04821303 5.73676529
O 12.56476448 11.46257625 10.32198985
H 11.75768848 11.69213985 10.79536970
H 12.63997840 12.20757125 9.71186389
O 9.35498658 8.99818150 5.21394398
H 9.41296829 8.17909419 5.81753426
H 8.56432281 9.37089158 5.62004535
O 11.76171293 0.49723891 7.81469094
H 11.37610424 0.43154873 6.88215661
H 11.51567052 1.46900623 7.97266472
O 5.50027916 8.52426499 10.71456175
H 6.40629369 8.42755855 11.04732456
H 5.03048387 9.10119598 11.30005949
O 1.81138760 8.86680895 10.42553274
H 2.13388996 9.14404137 11.27305314
H 0.93782634 8.52715229 10.55204014
O 5.67094353 6.46371307 2.24951865
H 5.29670833 5.60316529 2.38590718
H 5.27031941 6.79880790 1.46032185
O 2.94577740 1.86936076 3.37583402
H 2.77417905 1.72496862 2.45276393
H 2.61514640 1.18925638 3.97501975
O 1.29541406 10.85601399 25.19498423
H 1.80047633 10.37992890 0.40871323
H 1.78140997 10.80056048 24.40021198
O 1.92843626 25.34889858 5.19606663
H 1.42970367 0.35408556 5.86624167
H 1.21511615 24.89722660 4.75347929
O 5.07376533 1.57652684 0.36465937
H 5.05755542 1.01778173 1.15204464
H 5.36166839 0.99764616 25.11292590
O 1.41274737 10.02565666 7.79943216
H 1.48234229 9.70489673 8.72245025
H 0.48950637 10.35261077 7.75364043
O 3.65767410 6.86055022 9.30646226
H 2.75225372 7.15186648 9.66974957
H 4.24783240 7.48224086 9.75488439
O 3.30752018 12.16441473 2.31601269
H 2.47912738 12.44421869 2.80584857
H 3.73032416 11.72869300 3.07864716
O 6.94288711 11.29167851 2.76679589
H 6.73081061 12.24406350 2.55882351
H 6.26877236 10.92233326 3.34409209
O 10.74116895 0.85781107 5.20188158
H 10.75626237 1.78307200 4.90467050
H 10.79234882 0.30024430 4.40400799
O 8.74834897 2.85086356 8.96528289
H 8.48769200 1.93024385 8.99364607
H 8.14432292 3.25973916 8.32985294
O 10.47879962 9.32582443 0.14895149
H 10.22640362 9.48289210 1.09255545
H 11.10424121 8.55117287 0.22810858
O 7.71719077 2.21432644 3.42307412
H 7.99142674 1.86435278 2.56488416
H 8.32693830 2.89101577 3.68804618
O 5.41101065 6.95745362 6.88528454
H 4.56779054 6.92546154 7.40789167
H 5.16942442 7.28362336 5.98959555
O 0.86183186 11.16043906 3.87101072
H 0.96487222 10.33711356 4.30729801
H 0.19566945 10.92990655 3.18503497
O 9.87469610 25.29354775 10.01025410
H 9.02589578 25.16105766 9.59028181
H 10.51826504 25.36685925 9.29989643
O 3.87084607 11.72996365 6.90514271
H 3.39861442 11.41151299 7.70201052
H 3.18499630 12.04692837 6.29361782
O 2.73285782 0.69931206 9.53596579
H 3.43633375 0.07680881 9.73681330
H 3.02106884 1.58802639 9.76713603
O 4.92244561 25.17518464 2.68893394
H 4.82222990 0.38283694 3.41044250
H 4.20704994 24.55468428 2.73454066
O 25.08122245 8.58597735 0.52773013
H 0.53130609 8.89617634 0.66670899
H 25.02535279 7.71691449 0.95245497
O 9.97614070 6.55725767 6.35020369
H 10.17521829 5.72807368 5.92032845
H 10.18802107 6.42589005 7.26391838
O 5.12792235 3.65383697 10.89906507
H 5.58768833 2.86531404 11.27498394
H 4.77613250 3.48654393 10.03149114
O 0.00876676 3.47442936 12.25389988
H 0.43563643 2.58633310 12.20446361
H 25.24750742 3.52493588 13.15459963
O 12.90785746 10.50543299 7.71840494
H 12.81013821 9.59279110 7.55406659
H 12.59629611 10.57078638 8.65706540
O 11.37090077 3.18075184 8.24799218
H 10.61351283 3.32674526 8.85346656
H 12.09820488 3.65876435 8.67486635
O 7.58445085 0.14078439 8.24128606
H 7.03808332 0.73812274 7.75703104
H 8.14491772 25.06651320 7.61063632
O 3.77821054 7.22094819 25.02463716
H 3.71470904 6.29181069 24.76537156
H 4.40639742 7.60081163 24.38687698
O 10.05741422 1.92013874 24.94477371
H 10.18660523 2.74741927 25.39521726
H 10.31266463 2.12030687 24.04869843
O 11.10348840 3.61788053 5.31039048
H 10.19319358 3.92914188 5.19418048
H 11.41695434 3.63903441 6.27119633
O 24.62187684 6.99126995 9.98714604
H 25.39032537 6.58229056 10.40516785
H 23.92327137 6.85043982 10.62856671
O 5.55113262 24.48397858 9.87241014
H 6.35995663 24.65456787 9.35775903
H 5.63145583 23.60596557 10.22823079
O 1.32496170 4.60134261 3.67324669
H 1.69456486 3.81543918 4.07245611
H 0.51651082 4.73788206 4.21352422
O 5.14425519 11.18767786 0.26224962
H 5.91007859 10.73587186 0.50951672
H 4.55096001 11.30103832 1.00316021
O 2.19435670 7.07818226 16.03851670
H 1.70709708 7.92083838 15.97044917
H 1.77634579 6.45801109 16.72159590
O 11.67339655 5.16120227 13.19489416
H 10.71499126 5.44564338 13.18178558
H 12.05679176 5.74784871 13.88148156
O 8.00903820 25.24362372 13.75702763
H 7.41739860 0.04833598 13.04106521
H 8.89266034 0.13953339 13.54626562
O 2.86357891 12.36213325 21.41660060
H 2.29264902 13.11775906 21.57817058
H 3.57235654 12.45473079 22.03215507
O 2.21169586 5.51247687 13.63714444
H 2.35343837 5.84430796 14.52876525
H 3.10277724 5.42488596 13.15963546
O 5.46480153 3.88652657 17.02958946
H 4.56004340 3.79390113 16.71084406
H 5.97144754 3.17679206 16.53513061
O 6.88138854 1.21286701 18.74903106
H 7.15165200 1.63884893 17.94642077
H 5.96641201 0.94345193 18.61960362
O 7.38507800 4.03763455 19.38618309
H 7.17963878 3.06935351 19.34523098
H 6.57199633 4.54587290 19.26598141
O 3.42016012 4.91614530 21.91057666
H 3.61479631 4.53087063 21.04016952
H 3.76003987 5.84292340 21.95361245
O 12.79974972 1.09848949 23.73439898
H 12.77088198 0.28856069 23.13392926
H 11.97927854 1.19986056 24.26141281
O 4.78285622 7.86027553 16.70022816
H 3.86904053 7.58562895 16.49468143
H 5.32432695 7.34768660 16.14537398
O 0.56325237 5.01067203 23.60330959
H 0.28026454 4.93261144 24.47333063
H 1.33760642 4.43004201 23.62642531
O 0.52160229 2.95648750 20.59543527
H 1.48497621 3.01213930 20.83862014
H 0.04126907 3.10159833 21.42663684
O 9.60604055 7.60347412 21.04989812
H 9.30057798 6.71494716 21.08317324
H 10.39114082 7.55911451 21.49808105
O 0.06649141 9.46806677 16.01275542
H 0.47168059 9.98482288 16.68029662
H 24.91886365 8.78752686 16.46231585
O 8.15227544 8.56572833 24.44735956
H 8.53548240 8.76855527 23.57071125
H 8.95039250 8.58859190 25.01057167
O 4.92077780 10.31230222 16.84941494
H 4.81127692 9.39006661 16.47968077
H 4.16199602 10.76336200 17.17407679
O 9.01680679 6.03540323 13.26018194
H 8.59316499 5.82636191 14.11955207
H 8.79481903 5.23106450 12.73583435
O 6.57642856 9.68086690 19.17575061
H 6.62517126 8.73248713 19.27664841
H 5.97463912 9.80262420 18.42166264
O 8.45742403 6.48304011 15.96244609
H 7.47301760 6.48162693 15.79588826
H 8.67160462 7.39487756 16.25413003
O 9.06626924 4.42053436 17.46406031
H 8.39534256 4.48488273 18.12894637
H 9.01377051 5.27028415 16.99265514
O 11.33065901 0.66092298 16.58180842
H 10.98418131 1.41224690 16.08723417
H 11.40758849 25.30109358 16.03323847
O 7.70885402 4.15067510 24.57005608
H 6.74602623 4.18398578 24.52452317
H 7.94554255 4.74333158 23.82453064
O 7.93543156 11.62355631 20.63445486
H 7.36369008 10.87791346 20.31656784
H 8.37444762 12.08647985 19.91533824
O 8.23481620 10.17524725 13.92704750
H 7.57402452 10.80730724 14.32841538
H 8.39788726 9.53134490 14.59345376
O 3.12601090 4.10979537 19.32884515
H 3.86455852 4.13054885 18.74130050
H 2.50251811 4.81467835 19.01021556
O 11.33388975 11.33818636 24.06899582
H 11.21318046 10.61829134 24.73474105
H 10.71521055 11.16453526 23.35528816
O 8.70746421 9.14928523 17.14560880
H 9.49957731 8.87587783 17.62702046
H 8.17349430 9.54915128 17.87927940
O 10.16895221 2.28567645 19.58908659
H 9.99136745 1.38690190 19.20818222
H 9.74143717 2.95001076 18.99865463
O 5.43166925 9.05619460 23.79477806
H 6.36366230 8.94894964 24.07091915
H 4.99881587 9.73319579 24.33280413
O 2.20533005 9.74337504 21.49417289
H 2.40992609 10.64881108 21.72140777
H 1.60950583 9.29081131 22.12142879
O 5.92481686 5.98506889 15.14595985
H 5.65096229 5.23540974 15.72152114
H 5.36606261 5.92650828 14.36222863
O 3.02376421 3.35909789 16.30451028
H 2.99549630 2.85182202 15.46135021
H 2.57879883 2.72798037 16.95843790
O 1.49488944 9.31099136 13.08767382
H 0.90677502 10.04816781 13.05111703
H 0.95083073 8.50191873 13.02624801
O 2.01462942 1.88289494 18.28279367
H 1.48754000 2.46288823 18.80547798
H 1.44018152 1.16978277 18.08306151
O 6.02742522 0.98998239 12.00957536
H 5.93366241 0.35495400 11.27117179
H 5.28530130 0.95170799 12.63471610
O 0.90417261 10.14334578 19.24969187
H 1.35045992 10.07889392 20.11450653
H 0.04689956 9.79603651 19.44559429
O 4.42156069 7.76608646 21.63844222
H 3.89251017 8.52651373 21.42964846
H 5.25252545 8.04486349 22.09189892
O 2.20578884 11.87144388 15.22644450
H 1.92669682 11.89314484 16.14550014
H 1.30906517 11.78832972 14.83850425
O 6.49242139 11.97991452 15.08187744
H 6.71999321 12.95921401 15.12974641
H 6.06005576 11.74754221 15.92578257
O 9.73709128 25.26797002 18.63191587
H 8.79480115 25.27972779 18.41122788
H 10.23565127 25.35271253 17.78978483
O 8.54108366 4.94117004 21.95960382
H 8.91698103 4.04477999 22.14025606
H 8.06200584 4.88090445 21.12358126
O 10.94762514 10.32387040 13.18289761
H 10.01244069 10.13478820 13.01253381
H 11.33218206 9.43645310 13.16620997
O 7.46242487 1.95842152 15.71621592
H 7.33937440 1.22075454 15.13336378
H 8.24515192 2.39176924 15.21785861
O 5.83004832 6.77545736 19.11635372
H 5.23375125 6.89471409 19.88394857
H 5.32744264 7.04561060 18.29733494
O 1.00633214 12.16729726 17.85045587
H 0.70715516 11.50391370 18.50936295
H 0.29954858 12.46064342 17.30037491
O 9.77785467 2.65859690 22.24012903
H 8.97922872 2.08288593 22.27064770
H 9.95210558 2.49358304 21.28482000
O 3.79848017 12.17583919 18.65115175
H 3.61300863 11.95187720 19.57026612
H 2.90064887 12.21215593 18.32758593
O 2.98669421 1.03027926 23.09152010
H 3.93041026 0.80177496 23.25176693
H 2.84133425 1.68982182 23.81133156
O 3.86858365 0.87667573 13.69874202
H 3.65420096 0.38414537 14.51784292
H 3.03863064 1.00280130 13.20489855
O 0.16657961 6.86916525 12.89833258
H 0.98094318 6.28306293 13.09264439
H 24.95921312 6.53286595 13.50860224
O 11.09594286 8.28779802 18.36739381
H 11.32308328 7.33852721 18.43781111
H 10.83283592 8.41960104 19.28818469
O 4.82671713 4.10909190 24.14636476
H 4.79259691 3.32515571 24.71445008
H 4.41689700 3.97245705 23.29956269
O 1.51393973 2.32724056 0.37098413
H 0.76881957 2.75631862 0.80861378
H 1.39554330 1.38922234 0.15383354
O 9.71283380 10.29610467 22.09063966
H 9.19736255 10.97375452 21.66131086
H 9.64526045 9.45896048 21.62802231
O 11.49548747 5.13957018 20.96900170
H 10.90095492 4.94909212 21.68375679
H 12.40001896 5.11763090 21.28183837
O 7.86317431 0.92374053 21.58373331
H 7.62097979 1.09473892 20.64648344
H 8.29817547 0.09001204 21.45753839
O 4.77534407 6.09804318 12.73899776
H 4.88190962 5.31104571 12.16763815
H 4.87900005 6.80142717 12.12150225
O 10.27571014 2.34363597 14.73033763
H 10.51871840 3.21156247 15.03407679
H 10.68513460 2.25541865 13.90101727
O 11.40964322 5.48836962 18.38957901
H 10.56960635 5.34938993 18.08937593
H 11.39315769 5.10081964 19.29376410
O 0.50484082 7.95010240 23.32523114
H 0.93968731 7.08753252 23.52843105
H 0.35469955 8.42991174 24.12693931
O 5.53201889 0.11058903 23.26134298
H 6.26240927 0.32741750 22.71118377
H 5.49395421 24.56096410 23.49345113
O 1.12132786 5.04527719 17.48319290
H 1.10018627 4.36865862 16.75507468
H 0.27295570 5.02762722 17.85399499
O 5.25436300 23.34258843 13.74187651
H 5.07941805 23.37042004 14.69559776
H 4.38786697 23.40773746 13.34922659
O 1.94698849 19.33285167 4.47273007
H 1.27685636 19.91429348 4.90878441
H 1.61135598 18.45932538 4.36165380
O 12.73428901 17.29579132 1.46648752
H 11.78627253 17.27368849 1.66565950
H 13.09805144 17.31965954 2.36137805
O 6.72268356 13.73482613 1.73792320
H 6.12071933 13.58434644 0.98395574
H 7.46819444 14.22675870 1.36313166
O 1.44274022 0.79255720 12.06446739
H 0.56802576 0.41311570 11.81498383
H 1.82149850 0.83306626 11.18733425
O 1.85295488 19.97645920 1.91667420
H 2.01109116 19.83473013 2.87241223
H 2.49726169 19.33208181 1.52627717
O 4.33423163 14.94596604 3.17804520
H 4.06602659 14.38174038 3.87596681
H 4.71436300 14.31264219 2.54502080
O 5.38785710 14.63363719 7.21533988
H 6.20291369 14.50915797 6.75921678
H 4.86625409 13.86334585 7.09120655
O 5.82713536 17.84340484 6.86764991
H 5.80293967 17.13996552 6.16596747
H 5.42169126 18.62201103 6.42153428
O 2.29070233 19.39508910 7.94097546
H 3.00392077 18.75206212 7.85308213
H 2.01168193 19.68779456 7.03158422
O 11.29695227 12.97810109 13.43913847
H 11.42474534 12.04474685 13.69740029
H 10.67516421 12.97042603 12.69465838
O 4.48167832 19.78477280 4.97028963
H 3.54160263 19.50312107 4.97881517
H 4.97204070 19.06337334 4.44751923
O 1.14237451 17.27748186 10.75275312
H 1.50859153 17.81596948 11.45290244
H 1.80369806 16.61693633 10.56042925
O 1.61481560 15.10145392 8.70918952
H 1.73213344 14.58020018 9.51391271
H 0.81133311 14.72346681 8.36959392
O 11.08351063 19.96605508 9.25002720
H 10.57568042 20.71224320 9.57741078
H 11.11889625 19.39811873 10.04929742
O 0.52868859 21.06251668 5.96274567
H 1.06131099 21.76874756 6.38830629
H 25.23562361 20.75828878 6.55006731
O 8.81495430 20.59485568 12.58562817
H 9.49428216 20.80262062 13.23901521
H 8.67128162 19.68852532 12.39150303
O 5.67360940 21.95505861 3.83221347
H 5.29360441 21.12203705 4.15846859
H 5.00745750 22.63972472 4.07309754
O 9.80766069 17.62937375 1.52819300
H 9.24762458 17.95814630 2.27300976
H 9.27102507 17.72625438 0.72201664
O 7.69514285 22.15536492 5.69733441
H 7.16712614 21.65060503 6.39856183
H 6.99923407 22.42584539 5.13555961
O 8.19564633 18.02752094 3.87096531
H 7.24914398 17.95340532 3.81295567
H 8.26528359 19.02070674 3.75645071
O 9.43632193 16.75172893 6.09830145
H 9.13455070 16.52647870 6.99983340
H 8.96613793 17.38633138 5.61621438
O 10.87532911 12.45813225 2.94349974
H 10.24870863 11.76597796 3.12014964
H 10.42366948 13.06319315 2.30364861
O 8.03992302 17.92838201 11.36174164
H 7.43053404 17.86885612 10.58412961
H 8.89094833 18.20697316 11.00781129
O 9.32331022 24.00705209 6.86511115
H 8.72798912 23.37838868 6.33932858
H 9.89052690 24.45470501 6.25921671
O 9.46161181 22.59212388 2.02663777
H 8.55347003 22.91745268 1.80538530
H 9.34165410 21.74721011 2.55874523
O 2.92819074 15.39645651 6.19168732
H 3.78451167 15.11570037 6.52460937
H 2.33894270 15.59160975 6.91892427
O 12.11112440 23.78271820 12.41273106
H 12.32420105 22.94450153 12.80425273
H 11.40388358 23.58734311 11.74865308
O 9.00030552 20.73330006 3.79213009
H 9.94937189 20.47731483 4.02831219
H 8.66133771 21.29114579 4.54407491
O 11.84137461 13.68957234 8.58997429
H 11.60824577 13.44460042 7.68353795
H 11.76643614 14.61876855 8.74190154
O 6.00127106 21.07579946 12.59103666
H 6.96161991 21.12651877 12.47020307
H 5.86608016 21.84047954 13.16025889
O 2.64694635 23.45860215 12.24912565
H 2.18981534 24.34076554 12.11969633
H 2.93731910 23.22010705 11.36909526
O 5.37400498 17.53048375 3.40716016
H 4.97958848 16.63304552 3.53735225
H 5.08009100 17.72591544 2.47783307
O 2.02905559 15.48179050 1.81932284
H 1.65760819 14.58662569 1.79789102
H 2.69033445 15.48684337 2.51929689
O 0.71733403 24.83584423 25.26871543
H 25.19303600 24.60847136 25.35396213
H 0.76144764 25.02885526 24.32187933
O 2.31682997 12.88242282 5.15696525
H 2.18749576 13.75946468 5.49638771
H 1.52569077 12.46797049 4.83778438
O 3.64729124 14.83133730 25.08066193
H 3.04766918 14.93022610 0.39750470
H 3.85844515 14.02213049 24.61103600
O 1.82439648 22.55608530 7.88837409
H 1.59538063 21.86871375 8.50482999
H 1.24097535 23.29284798 8.12991783
O 5.16521075 21.65690150 9.91375317
H 4.33059821 21.29687149 9.62287540
H 5.23465679 21.37521228 10.79517365
O 2.65878301 23.17647370 2.28382813
H 1.78155417 23.66744960 2.41498569
H 2.49653223 22.23167891 2.51417612
O 6.71426335 23.00061836 1.43371263
H 6.50280167 23.85645695 1.82127239
H 6.51972958 22.33797229 2.15916741
O 10.71611201 13.13797242 5.67426318
H 9.90581121 13.60300047 5.43138974
H 11.09501192 12.91207861 4.80118832
O 8.78489416 15.31713642 8.37195005
H 8.52140378 14.48570337 7.96711951
H 8.11729727 15.63032738 8.96526702
O 11.74420682 23.03068658 0.63775618
H 10.90251974 22.80522859 0.99078028
H 12.17397680 22.18110872 0.46843776
O 7.97336192 14.35966869 5.84773565
H 7.80041445 14.11339994 4.92141751
H 8.45153806 15.22540098 5.78337999
O 6.20208399 20.79228812 7.30278308
H 6.08387418 21.02967573 8.25537863
H 5.37242437 20.74194249 6.87743969
O 0.05612886 24.35143143 3.41119721
H 25.13921573 23.85713038 4.13701996
H 24.88482150 25.10954709 3.35332648
O 10.05977918 13.20617066 10.85766994
H 9.12055308 13.10834707 10.63267891
H 10.46942368 13.19102704 9.99112818
O 4.17096692 24.01968396 6.25575514
H 3.54999501 23.57408490 6.83449185
H 3.54554005 24.52146585 5.72702742
O 2.32575788 14.40716632 11.28734926
H 3.20086854 14.15421062 11.69473239
H 1.91395100 14.87114594 12.01506682
O 0.83608051 13.14697577 0.94397805
H 1.27454570 12.38128307 0.40570989
H 0.76130891 13.84860137 0.27702794
O 24.68070482 20.03223634 1.84329010
H 0.20188176 19.97604151 1.75625429
H 24.35948965 19.20712059 1.50060074
O 10.47241923 19.98906527 6.36049018
H 10.39199323 19.03785684 6.25213205
H 10.67254098 20.13295828 7.28049041
O 6.44352043 17.01747686 9.35962306
H 5.51844378 16.79897771 9.44625617
H 6.50220206 17.41109875 8.49906644
O 0.17528022 14.98619040 13.32556734
H 24.82900344 14.69629940 12.78608051
H 0.04018209 15.92707215 13.46361420
O 9.88252497 22.18062921 10.66266728
H 9.38723586 22.97861701 10.45725165
H 9.41579526 21.66360809 11.35775536
O 12.19854609 16.68650494 8.98121536
H 11.55672645 17.37946330 9.13416832
H 12.99030979 16.77886763 9.52891289
O 7.38382174 13.07677880 9.78082532
H 7.64732181 12.37593718 9.15615391
H 6.82959782 13.58800302 9.20589055
O 4.29370971 18.66544852 0.72942525
H 4.55370716 17.88826333 0.22162258
H 4.53546430 19.50727862 0.26627912
O 9.63735308 14.51592061 1.45750348
H 10.04391373 15.36477065 1.62354693
H 10.06359753 14.09762318 0.69062646
O 12.03955585 16.72325871 5.87290089
H 11.17848042 16.29894051 6.03076124
H 12.46697003 17.03562210 6.67994040
O 1.53271990 20.74805092 9.97591892
H 1.75116891 19.99922206 9.37106661
H 1.38691801 20.47419788 10.91859967
O 4.45441878 13.23685279 11.39812234
H 4.32521976 12.41857443 11.79234864
H 5.11174430 13.22849207 10.76661011
O 0.33867206 16.61851508 4.36989328
H 0.81581899 15.82770684 4.04476411
H 0.37100402 16.57449780 5.31808722
O 3.78193013 23.67840650 25.22158874
H 4.47641753 23.92020143 0.36560323
H 3.08646899 23.39625813 0.33880897
O 1.78641220 20.54085231 16.45657238
H 1.39577200 21.01127325 17.22550595
H 1.63018934 19.60514137 16.49394657
O 12.39047843 16.70849903 14.54489436
H 11.46831177 16.94324568 14.48117738
H 12.74768774 17.09003668 15.38399715
O 7.43053193 14.57693604 14.88213016
H 6.80004921 15.01008808 14.28475334
H 8.29341739 14.72566196 14.46216350
O 0.24499453 0.39387667 22.84911329
H 25.11202281 0.24578737 22.05646295
H 1.09327786 0.71687614 22.60166588
O 2.54015126 18.32819381 13.12807261
H 2.31135351 18.09852915 14.07885436
H 3.50388577 18.50294270 13.21183004
O 5.32671865 17.01991996 18.20566580
H 4.83658578 16.31169486 17.72551191
H 5.95003839 16.54185240 18.75300145
O 5.57924803 14.16990616 19.14192494
H 6.24198974 14.18180026 18.41684212
H 4.83168424 13.57490279 18.88027059
O 6.78650028 17.48306057 20.74701367
H 6.23294397 16.86972167 21.22938736
H 6.32704793 18.36636098 20.62307565
O 3.38028829 17.86966999 23.10225835
H 3.25164022 17.77199669 22.14330860
H 3.55352678 18.85782624 23.22620809
O 10.93056950 14.01671789 24.40205327
H 11.14998897 13.09561631 24.20973938
H 10.28719895 14.26434232 23.67415163
O 4.63422195 20.73950671 17.44759956
H 3.79785839 20.46856368 17.06487088
H 5.31811472 20.16580629 17.07291689
O 0.21414724 19.27758465 23.76908915
H 0.11641597 18.64343799 24.47481783
H 1.17422867 19.20570369 23.62472772
O 0.17039965 16.67960236 20.42014369
H 0.90816743 16.51016032 21.01203940
H 25.14094545 17.40337992 20.84006357
O 10.88882492 22.02201820 22.10775838
H 10.03085541 22.36990010 21.89713498
H 10.78720410 21.33912237 22.72932532
O 1.22750500 22.10533475 18.59360860
H 1.90145763 22.57678029 19.10544879
H 0.44229288 22.08639452 19.12028536
O 8.15807989 20.78156483 24.51637718
H 8.70663467 21.38983831 25.05690599
H 8.45084416 19.89487926 24.70858734
O 5.41995912 23.43927212 17.81758909
H 4.88454861 22.68420363 17.64530024
H 4.75096250 24.14557719 17.94781813
O 9.89953974 17.72113739 14.21665032
H 9.68364176 18.45499566 14.82081474
H 9.13713033 17.16650030 14.08205332
O 7.19556682 22.18225510 19.50639904
H 6.71051310 21.43557521 19.91032706
H 6.39250765 22.73363859 19.18049643
O 8.89480186 19.24568768 16.36900511
H 7.96553328 19.21862308 16.23674737
H 8.95218984 20.11841651 16.73641763
O 8.62915366 17.15582854 18.53087259
H 8.15481233 17.45501792 19.30638244
H 8.61435000 17.84115196 17.91120333
O 10.06724440 11.70734682 15.67582193
H 10.02719044 11.03256014 14.96488366
H 9.74933019 12.55897980 15.38158742
O 8.22321397 18.09512376 24.68630914
H 7.33207819 17.72658381 24.55072209
H 8.72482661 17.88758795 23.84849507
O 8.89368524 23.74159972 21.19039379
H 8.19642790 23.14427983 20.79747386
H 9.32497118 24.07127757 20.35526631
O 10.23332056 23.59987298 15.86201284
H 9.41228844 23.84406382 15.35685931
H 9.81651033 23.03837950 16.47986898
O 3.65192477 16.58695108 20.48611589
H 4.17374628 17.05992750 19.78167412
H 3.34030263 15.81166612 20.06774695
O 12.48287326 23.77361313 23.24470752
H 12.24235424 23.68626717 24.15563929
H 11.83156424 23.19939791 22.90922739
O 9.53745136 21.92097970 17.68825051
H 10.18767851 21.60017009 18.32646840
H 8.73702137 22.01100349 18.26932472
O 11.27420007 14.67972476 20.15899028
H 10.87624192 14.17179022 19.41387998
H 11.35787384 15.55796721 19.86476397
O 5.27796414 20.95281811 24.87878860
H 6.27179646 20.88944671 24.89237904
H 5.04261912 21.86795268 25.10489242
O 2.74963070 23.00791687 22.99027495
H 3.28046415 23.47837877 23.63887363
H 1.93721864 22.89113143 23.48368910
O 6.03207586 18.74783519 16.32800916
H 5.82638986 18.04313360 16.94249035
H 5.88434220 18.30188361 15.47236669
O 3.21581743 15.84838786 16.93720124
H 2.96827365 15.43173684 16.06426181
H 2.66170849 15.30893965 17.56656843
O 2.74357517 21.76222825 14.42035707
H 2.26256916 22.12915285 13.65099417
H 2.17819352 21.49846731 15.16887371
O 1.80476639 14.68637845 18.74270277
H 1.24152577 15.34674218 19.20556629
H 1.42673933 13.84072284 18.48365175
O 5.72891302 15.06316972 13.03530659
H 5.39479974 14.18168249 12.68973037
H 4.94506350 15.41283993 13.47024442
O 2.48587281 24.27063471 20.43390405
H 2.73493996 23.97571007 21.30211707
H 1.61258110 24.64709315 20.51516524
O 3.65843744 20.47856195 22.59852154
H 3.28896791 21.39313103 22.56938864
H 4.36099847 20.61958940 23.23720178
O 3.38168388 24.29419265 16.01615099
H 2.65320331 24.82245585 16.30342370
H 3.00855052 23.58647681 15.46079323
O 7.34720332 23.74915268 15.86896254
H 7.11570143 24.03468355 14.91244082
H 6.50181575 23.45229610 16.23196786
O 9.62148696 13.00822220 18.31779597
H 9.03581492 13.58216422 17.76455272
H 9.93563649 12.30219996 17.71362725
O 9.20658781 17.98874947 21.96664723
H 9.18693029 17.01383211 21.90490528
H 8.38915131 18.21737937 21.65365335
O 10.84014821 21.00337269 14.34965283
H 10.67274996 21.90335978 14.69474181
H 11.62929722 21.04305856 13.82658356
O 7.93225037 14.67333340 17.59368339
H 7.69890537 14.75571231 16.68078084
H 8.17683968 15.54794237 17.84080416
O 5.29717360 20.13034131 20.09221131
H 4.76858052 20.36318115 20.83514095
H 4.71331991 20.28780157 19.33588906
O 0.83249898 25.11911222 16.57308896
H 0.33350240 24.72925527 17.33855629
H 0.16106050 0.12688078 16.11824889
O 9.03813161 15.06388061 21.97762760
H 8.22209595 14.58094002 21.72068760
H 9.78009339 14.71239256 21.44342476
O 4.34133399 0.57247924 19.02819659
H 3.83060846 0.16245349 19.73893239
H 3.61862320 0.97360792 18.46847463
O 1.79670120 15.16893117 22.04207492
H 2.44776345 15.68397424 22.50757439
H 1.14253773 14.91755510 22.74066707
O 3.01090631 14.38854824 14.30265919
H 2.92249258 13.54497989 14.75696585
H 2.13214134 14.59562339 13.99268025
O 0.51457316 20.60315075 12.81929929
H 1.27540975 20.44132941 13.38515382
H 25.31292294 19.91457253 13.02533527
O 11.70053288 21.16870720 19.28817327
H 11.74956539 20.34959457 19.77169683
H 11.35894060 21.83393999 19.92002249
O 5.75731251 16.65269309 24.25420161
H 5.19665964 15.90053858 24.60395160
H 5.12379335 17.23466142 23.85429459
O 25.33133841 15.12137693 23.97363125
H 25.43096664 15.94524314 24.50626396
H 24.42258155 14.80941719 24.07527261
O 12.17024033 24.71566727 20.47879724
H 12.04689510 24.74797183 21.44379466
H 12.07699852 0.20727262 20.18002793
O 11.82986499 18.75255212 21.01352087
H 11.09087093 18.65917218 21.61473481
H 12.48562484 18.20365267 21.44289523
O 6.67897055 13.63428294 21.57540418
H 7.03291451 12.78205030 21.32558169
H 6.09649804 13.90977080 20.87712759
O 5.67295337 18.39360333 13.50667442
H 6.42063852 18.05402095 13.05531994
H 5.72497623 19.33469655 13.40439130
O 10.01525906 14.37320535 15.09481719
H 10.53273801 14.77505233 15.80578792
H 10.68655907 13.91111646 14.48927767
O 11.58928061 17.50472256 18.57663023
H 10.74715152 17.29203011 18.26461771
H 11.56706013 17.93231300 19.47210720
O 0.26762870 22.26378690 24.08665007
H 0.19643832 21.37329667 24.46008760
H 25.41645286 22.87658215 24.72463700
O 4.76133715 12.72733373 23.38730077
H 4.93341058 12.04162841 24.02518218
H 5.66022669 12.98193273 23.07701344
O 1.32363022 17.87653796 16.26041248
H 1.96297992 17.18725871 16.56530955
H 0.72699475 17.88704772 16.98226746
O 18.44026363 10.76467334 12.86827625
H 19.05336595 11.21711238 13.47314846
H 17.59919163 10.59215892 13.28853208
O 14.17769826 6.69064179 4.07295716
H 13.54251752 7.26863448 4.55269896
H 13.82851618 5.82698637 4.13849537
O 25.15275611 5.78930593 1.24296578
H 0.52403768 5.48998373 1.71042773
H 24.39468093 5.45388700 1.74213335
O 19.95652357 1.67840219 2.59573326
H 19.47474217 2.22995953 1.98413889
H 20.81261504 1.58751656 2.18118455
O 14.65343484 11.88962586 12.08438043
H 13.99671152 11.58024188 11.47433700
H 15.34670643 12.32391788 11.54377574
O 14.84451590 7.33517254 1.44487034
H 14.67983875 6.85908134 2.28680096
H 15.51831838 6.78931998 1.06420873
O 17.45727966 3.63254084 4.44367571
H 16.92772826 2.98761682 4.01967126
H 18.27995374 3.23601744 4.65956762
O 18.20173154 1.38011063 6.82885440
H 19.05033173 0.91825784 6.61158516
H 17.50960290 0.72650136 6.75414727
O 20.03448476 5.75413395 6.38346477
H 19.34905825 5.08197709 6.23880747
H 19.58594518 6.56149586 6.78119082
O 16.51237393 4.55566541 9.86867832
H 16.82712681 4.33766069 8.96197661
H 16.84037244 5.45811518 10.09539275
O 22.51176993 25.31856524 10.20090706
H 23.28376898 24.79127036 10.46488105
H 22.77989666 0.10666024 9.29741603
O 16.46152206 6.26955120 5.31554495
H 15.70911245 6.77331706 5.02463343
H 16.85906280 5.85645248 4.58939673
O 13.69653283 4.03090989 9.79967704
H 13.74821574 3.55973046 10.60357111
H 14.63894883 4.29526304 9.64853800
O 14.53177714 24.20428868 8.48189751
H 13.70104483 24.74796244 8.41811823
H 15.10129349 24.87113348 8.86439605
O 23.16182120 8.63440687 8.46499601