2025-01-10 22:34:59.565008: I tensorflow/core/util/port.cc:153] oneDNN custom operations are on. You may see slightly different numerical results due to floating-point round-off errors from different computation orders. To turn them off, set the environment variable `TF_ENABLE_ONEDNN_OPTS=0`.
2025-01-10 22:34:59.566557: I external/local_xla/xla/tsl/cuda/cudart_stub.cc:32] Could not find cuda drivers on your machine, GPU will not be used.
2025-01-10 22:34:59.570444: I external/local_xla/xla/tsl/cuda/cudart_stub.cc:32] Could not find cuda drivers on your machine, GPU will not be used.
2025-01-10 22:34:59.581843: E external/local_xla/xla/stream_executor/cuda/cuda_fft.cc:477] Unable to register cuFFT factory: Attempting to register factory for plugin cuFFT when one has already been registered
WARNING: All log messages before absl::InitializeLog() is called are written to STDERR
E0000 00:00:1736519699.600634   16200 cuda_dnn.cc:8310] Unable to register cuDNN factory: Attempting to register factory for plugin cuDNN when one has already been registered
E0000 00:00:1736519699.606301   16200 cuda_blas.cc:1418] Unable to register cuBLAS factory: Attempting to register factory for plugin cuBLAS when one has already been registered

***************************************************************
*                 Welcome to use GPUMD                        *
*     (Graphics Processing Units Molecular Dynamics)          *
*               Master version after 3.9.5                    *
*              This is the gpumd executable                   *
***************************************************************


---------------------------------------------------------------
Compiling options:
---------------------------------------------------------------

DEBUG is off: Use different PRNG seeds for different runs.

---------------------------------------------------------------
GPU information:
---------------------------------------------------------------

number of GPUs = 1
Device id:                   0
    Device name:             NVIDIA GeForce RTX 4090
    Compute capability:      8.9
    Amount of global memory: 23.546 GB
    Number of SMs:           128

---------------------------------------------------------------
Started running GPUMD.
---------------------------------------------------------------


---------------------------------------------------------------
Started initializing positions and related parameters.
---------------------------------------------------------------

Number of atoms is 1536.
Use periodic boundary conditions along x.
Use periodic boundary conditions along y.
Use periodic boundary conditions along z.
Box matrix h = [a, b, c] is
    2.5438116074e+01    0.0000000000e+00    0.0000000000e+00
    0.0000000000e+00    2.5438116074e+01    0.0000000000e+00
    0.0000000000e+00    0.0000000000e+00    2.5438116074e+01
Inverse box matrix g = inv(h) is
    3.9311087233e-02    0.0000000000e+00    0.0000000000e+00
    0.0000000000e+00    3.9311087233e-02    0.0000000000e+00
    0.0000000000e+00    0.0000000000e+00    3.9311087233e-02
Do not specify initial velocities here.
Have 1 grouping method(s).
There are 1536 groups of atoms in grouping method 0.
    1 atoms in group 0.
    1 atoms in group 1.
    1 atoms in group 2.
    1 atoms in group 3.
    1 atoms in group 4.
    1 atoms in group 5.
    1 atoms in group 6.
    1 atoms in group 7.
    1 atoms in group 8.
    1 atoms in group 9.
    1 atoms in group 10.
    1 atoms in group 11.
    1 atoms in group 12.
    1 atoms in group 13.
    1 atoms in group 14.
    1 atoms in group 15.
    1 atoms in group 16.
    1 atoms in group 17.
    1 atoms in group 18.
    1 atoms in group 19.
    1 atoms in group 20.
    1 atoms in group 21.
    1 atoms in group 22.
    1 atoms in group 23.
    1 atoms in group 24.
    1 atoms in group 25.
    1 atoms in group 26.
    1 atoms in group 27.
    1 atoms in group 28.
    1 atoms in group 29.
    1 atoms in group 30.
    1 atoms in group 31.
    1 atoms in group 32.
    1 atoms in group 33.
    1 atoms in group 34.
    1 atoms in group 35.
    1 atoms in group 36.
    1 atoms in group 37.
    1 atoms in group 38.
    1 atoms in group 39.
    1 atoms in group 40.
    1 atoms in group 41.
    1 atoms in group 42.
    1 atoms in group 43.
    1 atoms in group 44.
    1 atoms in group 45.
    1 atoms in group 46.
    1 atoms in group 47.
    1 atoms in group 48.
    1 atoms in group 49.
    1 atoms in group 50.
    1 atoms in group 51.
    1 atoms in group 52.
    1 atoms in group 53.
    1 atoms in group 54.
    1 atoms in group 55.
    1 atoms in group 56.
    1 atoms in group 57.
    1 atoms in group 58.
    1 atoms in group 59.
    1 atoms in group 60.
    1 atoms in group 61.
    1 atoms in group 62.
    1 atoms in group 63.
    1 atoms in group 64.
    1 atoms in group 65.
    1 atoms in group 66.
    1 atoms in group 67.
    1 atoms in group 68.
    1 atoms in group 69.
    1 atoms in group 70.
    1 atoms in group 71.
    1 atoms in group 72.
    1 atoms in group 73.
    1 atoms in group 74.
    1 atoms in group 75.
    1 atoms in group 76.
    1 atoms in group 77.
    1 atoms in group 78.
    1 atoms in group 79.
    1 atoms in group 80.
    1 atoms in group 81.
    1 atoms in group 82.
    1 atoms in group 83.
    1 atoms in group 84.
    1 atoms in group 85.
    1 atoms in group 86.
    1 atoms in group 87.
    1 atoms in group 88.
    1 atoms in group 89.
    1 atoms in group 90.
    1 atoms in group 91.
    1 atoms in group 92.
    1 atoms in group 93.
    1 atoms in group 94.
    1 atoms in group 95.
    1 atoms in group 96.
    1 atoms in group 97.
    1 atoms in group 98.
    1 atoms in group 99.
    1 atoms in group 100.
    1 atoms in group 101.
    1 atoms in group 102.
    1 atoms in group 103.
    1 atoms in group 104.
    1 atoms in group 105.
    1 atoms in group 106.
    1 atoms in group 107.
    1 atoms in group 108.
    1 atoms in group 109.
    1 atoms in group 110.
    1 atoms in group 111.
    1 atoms in group 112.
    1 atoms in group 113.
    1 atoms in group 114.
    1 atoms in group 115.
    1 atoms in group 116.
    1 atoms in group 117.
    1 atoms in group 118.
    1 atoms in group 119.
    1 atoms in group 120.
    1 atoms in group 121.
    1 atoms in group 122.
    1 atoms in group 123.
    1 atoms in group 124.
    1 atoms in group 125.
    1 atoms in group 126.
    1 atoms in group 127.
    1 atoms in group 128.
    1 atoms in group 129.
    1 atoms in group 130.
    1 atoms in group 131.
    1 atoms in group 132.
    1 atoms in group 133.
    1 atoms in group 134.
    1 atoms in group 135.
    1 atoms in group 136.
    1 atoms in group 137.
    1 atoms in group 138.
    1 atoms in group 139.
    1 atoms in group 140.
    1 atoms in group 141.
    1 atoms in group 142.
    1 atoms in group 143.
    1 atoms in group 144.
    1 atoms in group 145.
    1 atoms in group 146.
    1 atoms in group 147.
    1 atoms in group 148.
    1 atoms in group 149.
    1 atoms in group 150.
    1 atoms in group 151.
    1 atoms in group 152.
    1 atoms in group 153.
    1 atoms in group 154.
    1 atoms in group 155.
    1 atoms in group 156.
    1 atoms in group 157.
    1 atoms in group 158.
    1 atoms in group 159.
    1 atoms in group 160.
    1 atoms in group 161.
    1 atoms in group 162.
    1 atoms in group 163.
    1 atoms in group 164.
    1 atoms in group 165.
    1 atoms in group 166.
    1 atoms in group 167.
    1 atoms in group 168.
    1 atoms in group 169.
    1 atoms in group 170.
    1 atoms in group 171.
    1 atoms in group 172.
    1 atoms in group 173.
    1 atoms in group 174.
    1 atoms in group 175.
    1 atoms in group 176.
    1 atoms in group 177.
    1 atoms in group 178.
    1 atoms in group 179.
    1 atoms in group 180.
    1 atoms in group 181.
    1 atoms in group 182.
    1 atoms in group 183.
    1 atoms in group 184.
    1 atoms in group 185.
    1 atoms in group 186.
    1 atoms in group 187.
    1 atoms in group 188.
    1 atoms in group 189.
    1 atoms in group 190.
    1 atoms in group 191.
    1 atoms in group 192.
    1 atoms in group 193.
    1 atoms in group 194.
    1 atoms in group 195.
    1 atoms in group 196.
    1 atoms in group 197.
    1 atoms in group 198.
    1 atoms in group 199.
    1 atoms in group 200.
    1 atoms in group 201.
    1 atoms in group 202.
    1 atoms in group 203.
    1 atoms in group 204.
    1 atoms in group 205.
    1 atoms in group 206.
    1 atoms in group 207.
    1 atoms in group 208.
    1 atoms in group 209.
    1 atoms in group 210.
    1 atoms in group 211.
    1 atoms in group 212.
    1 atoms in group 213.
    1 atoms in group 214.
    1 atoms in group 215.
    1 atoms in group 216.
    1 atoms in group 217.
    1 atoms in group 218.
    1 atoms in group 219.
    1 atoms in group 220.
    1 atoms in group 221.
    1 atoms in group 222.
    1 atoms in group 223.
    1 atoms in group 224.
    1 atoms in group 225.
    1 atoms in group 226.
    1 atoms in group 227.
    1 atoms in group 228.
    1 atoms in group 229.
    1 atoms in group 230.
    1 atoms in group 231.
    1 atoms in group 232.
    1 atoms in group 233.
    1 atoms in group 234.
    1 atoms in group 235.
    1 atoms in group 236.
    1 atoms in group 237.
    1 atoms in group 238.
    1 atoms in group 239.
    1 atoms in group 240.
    1 atoms in group 241.
    1 atoms in group 242.
    1 atoms in group 243.
    1 atoms in group 244.
    1 atoms in group 245.
    1 atoms in group 246.
    1 atoms in group 247.
    1 atoms in group 248.
    1 atoms in group 249.
    1 atoms in group 250.
    1 atoms in group 251.
    1 atoms in group 252.
    1 atoms in group 253.
    1 atoms in group 254.
    1 atoms in group 255.
    1 atoms in group 256.
    1 atoms in group 257.
    1 atoms in group 258.
    1 atoms in group 259.
    1 atoms in group 260.
    1 atoms in group 261.
    1 atoms in group 262.
    1 atoms in group 263.
    1 atoms in group 264.
    1 atoms in group 265.
    1 atoms in group 266.
    1 atoms in group 267.
    1 atoms in group 268.
    1 atoms in group 269.
    1 atoms in group 270.
    1 atoms in group 271.
    1 atoms in group 272.
    1 atoms in group 273.
    1 atoms in group 274.
    1 atoms in group 275.
    1 atoms in group 276.
    1 atoms in group 277.
    1 atoms in group 278.
    1 atoms in group 279.
    1 atoms in group 280.
    1 atoms in group 281.
    1 atoms in group 282.
    1 atoms in group 283.
    1 atoms in group 284.
    1 atoms in group 285.
    1 atoms in group 286.
    1 atoms in group 287.
    1 atoms in group 288.
    1 atoms in group 289.
    1 atoms in group 290.
    1 atoms in group 291.
    1 atoms in group 292.
    1 atoms in group 293.
    1 atoms in group 294.
    1 atoms in group 295.
    1 atoms in group 296.
    1 atoms in group 297.
    1 atoms in group 298.
    1 atoms in group 299.
    1 atoms in group 300.
    1 atoms in group 301.
    1 atoms in group 302.
    1 atoms in group 303.
    1 atoms in group 304.
    1 atoms in group 305.
    1 atoms in group 306.
    1 atoms in group 307.
    1 atoms in group 308.
    1 atoms in group 309.
    1 atoms in group 310.
    1 atoms in group 311.
    1 atoms in group 312.
    1 atoms in group 313.
    1 atoms in group 314.
    1 atoms in group 315.
    1 atoms in group 316.
    1 atoms in group 317.
    1 atoms in group 318.
    1 atoms in group 319.
    1 atoms in group 320.
    1 atoms in group 321.
    1 atoms in group 322.
    1 atoms in group 323.
    1 atoms in group 324.
    1 atoms in group 325.
    1 atoms in group 326.
    1 atoms in group 327.
    1 atoms in group 328.
    1 atoms in group 329.
    1 atoms in group 330.
    1 atoms in group 331.
    1 atoms in group 332.
    1 atoms in group 333.
    1 atoms in group 334.
    1 atoms in group 335.
    1 atoms in group 336.
    1 atoms in group 337.
    1 atoms in group 338.
    1 atoms in group 339.
    1 atoms in group 340.
    1 atoms in group 341.
    1 atoms in group 342.
    1 atoms in group 343.
    1 atoms in group 344.
    1 atoms in group 345.
    1 atoms in group 346.
    1 atoms in group 347.
    1 atoms in group 348.
    1 atoms in group 349.
    1 atoms in group 350.
    1 atoms in group 351.
    1 atoms in group 352.
    1 atoms in group 353.
    1 atoms in group 354.
    1 atoms in group 355.
    1 atoms in group 356.
    1 atoms in group 357.
    1 atoms in group 358.
    1 atoms in group 359.
    1 atoms in group 360.
    1 atoms in group 361.
    1 atoms in group 362.
    1 atoms in group 363.
    1 atoms in group 364.
    1 atoms in group 365.
    1 atoms in group 366.
    1 atoms in group 367.
    1 atoms in group 368.
    1 atoms in group 369.
    1 atoms in group 370.
    1 atoms in group 371.
    1 atoms in group 372.
    1 atoms in group 373.
    1 atoms in group 374.
    1 atoms in group 375.
    1 atoms in group 376.
    1 atoms in group 377.
    1 atoms in group 378.
    1 atoms in group 379.
    1 atoms in group 380.
    1 atoms in group 381.
    1 atoms in group 382.
    1 atoms in group 383.
    1 atoms in group 384.
    1 atoms in group 385.
    1 atoms in group 386.
    1 atoms in group 387.
    1 atoms in group 388.
    1 atoms in group 389.
    1 atoms in group 390.
    1 atoms in group 391.
    1 atoms in group 392.
    1 atoms in group 393.
    1 atoms in group 394.
    1 atoms in group 395.
    1 atoms in group 396.
    1 atoms in group 397.
    1 atoms in group 398.
    1 atoms in group 399.
    1 atoms in group 400.
    1 atoms in group 401.
    1 atoms in group 402.
    1 atoms in group 403.
    1 atoms in group 404.
    1 atoms in group 405.
    1 atoms in group 406.
    1 atoms in group 407.
    1 atoms in group 408.
    1 atoms in group 409.
    1 atoms in group 410.
    1 atoms in group 411.
    1 atoms in group 412.
    1 atoms in group 413.
    1 atoms in group 414.
    1 atoms in group 415.
    1 atoms in group 416.
    1 atoms in group 417.
    1 atoms in group 418.
    1 atoms in group 419.
    1 atoms in group 420.
    1 atoms in group 421.
    1 atoms in group 422.
    1 atoms in group 423.
    1 atoms in group 424.
    1 atoms in group 425.
    1 atoms in group 426.
    1 atoms in group 427.
    1 atoms in group 428.
    1 atoms in group 429.
    1 atoms in group 430.
    1 atoms in group 431.
    1 atoms in group 432.
    1 atoms in group 433.
    1 atoms in group 434.
    1 atoms in group 435.
    1 atoms in group 436.
    1 atoms in group 437.
    1 atoms in group 438.
    1 atoms in group 439.
    1 atoms in group 440.
    1 atoms in group 441.
    1 atoms in group 442.
    1 atoms in group 443.
    1 atoms in group 444.
    1 atoms in group 445.
    1 atoms in group 446.
    1 atoms in group 447.
    1 atoms in group 448.
    1 atoms in group 449.
    1 atoms in group 450.
    1 atoms in group 451.
    1 atoms in group 452.
    1 atoms in group 453.
    1 atoms in group 454.
    1 atoms in group 455.
    1 atoms in group 456.
    1 atoms in group 457.
    1 atoms in group 458.
    1 atoms in group 459.
    1 atoms in group 460.
    1 atoms in group 461.
    1 atoms in group 462.
    1 atoms in group 463.
    1 atoms in group 464.
    1 atoms in group 465.
    1 atoms in group 466.
    1 atoms in group 467.
    1 atoms in group 468.
    1 atoms in group 469.
    1 atoms in group 470.
    1 atoms in group 471.
    1 atoms in group 472.
    1 atoms in group 473.
    1 atoms in group 474.
    1 atoms in group 475.
    1 atoms in group 476.
    1 atoms in group 477.
    1 atoms in group 478.
    1 atoms in group 479.
    1 atoms in group 480.
    1 atoms in group 481.
    1 atoms in group 482.
    1 atoms in group 483.
    1 atoms in group 484.
    1 atoms in group 485.
    1 atoms in group 486.
    1 atoms in group 487.
    1 atoms in group 488.
    1 atoms in group 489.
    1 atoms in group 490.
    1 atoms in group 491.
    1 atoms in group 492.
    1 atoms in group 493.
    1 atoms in group 494.
    1 atoms in group 495.
    1 atoms in group 496.
    1 atoms in group 497.
    1 atoms in group 498.
    1 atoms in group 499.
    1 atoms in group 500.
    1 atoms in group 501.
    1 atoms in group 502.
    1 atoms in group 503.
    1 atoms in group 504.
    1 atoms in group 505.
    1 atoms in group 506.
    1 atoms in group 507.
    1 atoms in group 508.
    1 atoms in group 509.
    1 atoms in group 510.
    1 atoms in group 511.
    1 atoms in group 512.
    1 atoms in group 513.
    1 atoms in group 514.
    1 atoms in group 515.
    1 atoms in group 516.
    1 atoms in group 517.
    1 atoms in group 518.
    1 atoms in group 519.
    1 atoms in group 520.
    1 atoms in group 521.
    1 atoms in group 522.
    1 atoms in group 523.
    1 atoms in group 524.
    1 atoms in group 525.
    1 atoms in group 526.
    1 atoms in group 527.
    1 atoms in group 528.
    1 atoms in group 529.
    1 atoms in group 530.
    1 atoms in group 531.
    1 atoms in group 532.
    1 atoms in group 533.
    1 atoms in group 534.
    1 atoms in group 535.
    1 atoms in group 536.
    1 atoms in group 537.
    1 atoms in group 538.
    1 atoms in group 539.
    1 atoms in group 540.
    1 atoms in group 541.
    1 atoms in group 542.
    1 atoms in group 543.
    1 atoms in group 544.
    1 atoms in group 545.
    1 atoms in group 546.
    1 atoms in group 547.
    1 atoms in group 548.
    1 atoms in group 549.
    1 atoms in group 550.
    1 atoms in group 551.
    1 atoms in group 552.
    1 atoms in group 553.
    1 atoms in group 554.
    1 atoms in group 555.
    1 atoms in group 556.
    1 atoms in group 557.
    1 atoms in group 558.
    1 atoms in group 559.
    1 atoms in group 560.
    1 atoms in group 561.
    1 atoms in group 562.
    1 atoms in group 563.
    1 atoms in group 564.
    1 atoms in group 565.
    1 atoms in group 566.
    1 atoms in group 567.
    1 atoms in group 568.
    1 atoms in group 569.
    1 atoms in group 570.
    1 atoms in group 571.
    1 atoms in group 572.
    1 atoms in group 573.
    1 atoms in group 574.
    1 atoms in group 575.
    1 atoms in group 576.
    1 atoms in group 577.
    1 atoms in group 578.
    1 atoms in group 579.
    1 atoms in group 580.
    1 atoms in group 581.
    1 atoms in group 582.
    1 atoms in group 583.
    1 atoms in group 584.
    1 atoms in group 585.
    1 atoms in group 586.
    1 atoms in group 587.
    1 atoms in group 588.
    1 atoms in group 589.
    1 atoms in group 590.
    1 atoms in group 591.
    1 atoms in group 592.
    1 atoms in group 593.
    1 atoms in group 594.
    1 atoms in group 595.
    1 atoms in group 596.
    1 atoms in group 597.
    1 atoms in group 598.
    1 atoms in group 599.
    1 atoms in group 600.
    1 atoms in group 601.
    1 atoms in group 602.
    1 atoms in group 603.
    1 atoms in group 604.
    1 atoms in group 605.
    1 atoms in group 606.
    1 atoms in group 607.
    1 atoms in group 608.
    1 atoms in group 609.
    1 atoms in group 610.
    1 atoms in group 611.
    1 atoms in group 612.
    1 atoms in group 613.
    1 atoms in group 614.
    1 atoms in group 615.
    1 atoms in group 616.
    1 atoms in group 617.
    1 atoms in group 618.
    1 atoms in group 619.
    1 atoms in group 620.
    1 atoms in group 621.
    1 atoms in group 622.
    1 atoms in group 623.
    1 atoms in group 624.
    1 atoms in group 625.
    1 atoms in group 626.
    1 atoms in group 627.
    1 atoms in group 628.
    1 atoms in group 629.
    1 atoms in group 630.
    1 atoms in group 631.
    1 atoms in group 632.
    1 atoms in group 633.
    1 atoms in group 634.
    1 atoms in group 635.
    1 atoms in group 636.
    1 atoms in group 637.
    1 atoms in group 638.
    1 atoms in group 639.
    1 atoms in group 640.
    1 atoms in group 641.
    1 atoms in group 642.
    1 atoms in group 643.
    1 atoms in group 644.
    1 atoms in group 645.
    1 atoms in group 646.
    1 atoms in group 647.
    1 atoms in group 648.
    1 atoms in group 649.
    1 atoms in group 650.
    1 atoms in group 651.
    1 atoms in group 652.
    1 atoms in group 653.
    1 atoms in group 654.
    1 atoms in group 655.
    1 atoms in group 656.
    1 atoms in group 657.
    1 atoms in group 658.
    1 atoms in group 659.
    1 atoms in group 660.
    1 atoms in group 661.
    1 atoms in group 662.
    1 atoms in group 663.
    1 atoms in group 664.
    1 atoms in group 665.
    1 atoms in group 666.
    1 atoms in group 667.
    1 atoms in group 668.
    1 atoms in group 669.
    1 atoms in group 670.
    1 atoms in group 671.
    1 atoms in group 672.
    1 atoms in group 673.
    1 atoms in group 674.
    1 atoms in group 675.
    1 atoms in group 676.
    1 atoms in group 677.
    1 atoms in group 678.
    1 atoms in group 679.
    1 atoms in group 680.
    1 atoms in group 681.
    1 atoms in group 682.
    1 atoms in group 683.
    1 atoms in group 684.
    1 atoms in group 685.
    1 atoms in group 686.
    1 atoms in group 687.
    1 atoms in group 688.
    1 atoms in group 689.
    1 atoms in group 690.
    1 atoms in group 691.
    1 atoms in group 692.
    1 atoms in group 693.
    1 atoms in group 694.
    1 atoms in group 695.
    1 atoms in group 696.
    1 atoms in group 697.
    1 atoms in group 698.
    1 atoms in group 699.
    1 atoms in group 700.
    1 atoms in group 701.
    1 atoms in group 702.
    1 atoms in group 703.
    1 atoms in group 704.
    1 atoms in group 705.
    1 atoms in group 706.
    1 atoms in group 707.
    1 atoms in group 708.
    1 atoms in group 709.
    1 atoms in group 710.
    1 atoms in group 711.
    1 atoms in group 712.
    1 atoms in group 713.
    1 atoms in group 714.
    1 atoms in group 715.
    1 atoms in group 716.
    1 atoms in group 717.
    1 atoms in group 718.
    1 atoms in group 719.
    1 atoms in group 720.
    1 atoms in group 721.
    1 atoms in group 722.
    1 atoms in group 723.
    1 atoms in group 724.
    1 atoms in group 725.
    1 atoms in group 726.
    1 atoms in group 727.
    1 atoms in group 728.
    1 atoms in group 729.
    1 atoms in group 730.
    1 atoms in group 731.
    1 atoms in group 732.
    1 atoms in group 733.
    1 atoms in group 734.
    1 atoms in group 735.
    1 atoms in group 736.
    1 atoms in group 737.
    1 atoms in group 738.
    1 atoms in group 739.
    1 atoms in group 740.
    1 atoms in group 741.
    1 atoms in group 742.
    1 atoms in group 743.
    1 atoms in group 744.
    1 atoms in group 745.
    1 atoms in group 746.
    1 atoms in group 747.
    1 atoms in group 748.
    1 atoms in group 749.
    1 atoms in group 750.
    1 atoms in group 751.
    1 atoms in group 752.
    1 atoms in group 753.
    1 atoms in group 754.
    1 atoms in group 755.
    1 atoms in group 756.
    1 atoms in group 757.
    1 atoms in group 758.
    1 atoms in group 759.
    1 atoms in group 760.
    1 atoms in group 761.
    1 atoms in group 762.
    1 atoms in group 763.
    1 atoms in group 764.
    1 atoms in group 765.
    1 atoms in group 766.
    1 atoms in group 767.
    1 atoms in group 768.
    1 atoms in group 769.
    1 atoms in group 770.
    1 atoms in group 771.
    1 atoms in group 772.
    1 atoms in group 773.
    1 atoms in group 774.
    1 atoms in group 775.
    1 atoms in group 776.
    1 atoms in group 777.
    1 atoms in group 778.
    1 atoms in group 779.
    1 atoms in group 780.
    1 atoms in group 781.
    1 atoms in group 782.
    1 atoms in group 783.
    1 atoms in group 784.
    1 atoms in group 785.
    1 atoms in group 786.
    1 atoms in group 787.
    1 atoms in group 788.
    1 atoms in group 789.
    1 atoms in group 790.
    1 atoms in group 791.
    1 atoms in group 792.
    1 atoms in group 793.
    1 atoms in group 794.
    1 atoms in group 795.
    1 atoms in group 796.
    1 atoms in group 797.
    1 atoms in group 798.
    1 atoms in group 799.
    1 atoms in group 800.
    1 atoms in group 801.
    1 atoms in group 802.
    1 atoms in group 803.
    1 atoms in group 804.
    1 atoms in group 805.
    1 atoms in group 806.
    1 atoms in group 807.
    1 atoms in group 808.
    1 atoms in group 809.
    1 atoms in group 810.
    1 atoms in group 811.
    1 atoms in group 812.
    1 atoms in group 813.
    1 atoms in group 814.
    1 atoms in group 815.
    1 atoms in group 816.
    1 atoms in group 817.
    1 atoms in group 818.
    1 atoms in group 819.
    1 atoms in group 820.
    1 atoms in group 821.
    1 atoms in group 822.
    1 atoms in group 823.
    1 atoms in group 824.
    1 atoms in group 825.
    1 atoms in group 826.
    1 atoms in group 827.
    1 atoms in group 828.
    1 atoms in group 829.
    1 atoms in group 830.
    1 atoms in group 831.
    1 atoms in group 832.
    1 atoms in group 833.
    1 atoms in group 834.
    1 atoms in group 835.
    1 atoms in group 836.
    1 atoms in group 837.
    1 atoms in group 838.
    1 atoms in group 839.
    1 atoms in group 840.
    1 atoms in group 841.
    1 atoms in group 842.
    1 atoms in group 843.
    1 atoms in group 844.
    1 atoms in group 845.
    1 atoms in group 846.
    1 atoms in group 847.
    1 atoms in group 848.
    1 atoms in group 849.
    1 atoms in group 850.
    1 atoms in group 851.
    1 atoms in group 852.
    1 atoms in group 853.
    1 atoms in group 854.
    1 atoms in group 855.
    1 atoms in group 856.
    1 atoms in group 857.
    1 atoms in group 858.
    1 atoms in group 859.
    1 atoms in group 860.
    1 atoms in group 861.
    1 atoms in group 862.
    1 atoms in group 863.
    1 atoms in group 864.
    1 atoms in group 865.
    1 atoms in group 866.
    1 atoms in group 867.
    1 atoms in group 868.
    1 atoms in group 869.
    1 atoms in group 870.
    1 atoms in group 871.
    1 atoms in group 872.
    1 atoms in group 873.
    1 atoms in group 874.
    1 atoms in group 875.
    1 atoms in group 876.
    1 atoms in group 877.
    1 atoms in group 878.
    1 atoms in group 879.
    1 atoms in group 880.
    1 atoms in group 881.
    1 atoms in group 882.
    1 atoms in group 883.
    1 atoms in group 884.
    1 atoms in group 885.
    1 atoms in group 886.
    1 atoms in group 887.
    1 atoms in group 888.
    1 atoms in group 889.
    1 atoms in group 890.
    1 atoms in group 891.
    1 atoms in group 892.
    1 atoms in group 893.
    1 atoms in group 894.
    1 atoms in group 895.
    1 atoms in group 896.
    1 atoms in group 897.
    1 atoms in group 898.
    1 atoms in group 899.
    1 atoms in group 900.
    1 atoms in group 901.
    1 atoms in group 902.
    1 atoms in group 903.
    1 atoms in group 904.
    1 atoms in group 905.
    1 atoms in group 906.
    1 atoms in group 907.
    1 atoms in group 908.
    1 atoms in group 909.
    1 atoms in group 910.
    1 atoms in group 911.
    1 atoms in group 912.
    1 atoms in group 913.
    1 atoms in group 914.
    1 atoms in group 915.
    1 atoms in group 916.
    1 atoms in group 917.
    1 atoms in group 918.
    1 atoms in group 919.
    1 atoms in group 920.
    1 atoms in group 921.
    1 atoms in group 922.
    1 atoms in group 923.
    1 atoms in group 924.
    1 atoms in group 925.
    1 atoms in group 926.
    1 atoms in group 927.
    1 atoms in group 928.
    1 atoms in group 929.
    1 atoms in group 930.
    1 atoms in group 931.
    1 atoms in group 932.
    1 atoms in group 933.
    1 atoms in group 934.
    1 atoms in group 935.
    1 atoms in group 936.
    1 atoms in group 937.
    1 atoms in group 938.
    1 atoms in group 939.
    1 atoms in group 940.
    1 atoms in group 941.
    1 atoms in group 942.
    1 atoms in group 943.
    1 atoms in group 944.
    1 atoms in group 945.
    1 atoms in group 946.
    1 atoms in group 947.
    1 atoms in group 948.
    1 atoms in group 949.
    1 atoms in group 950.
    1 atoms in group 951.
    1 atoms in group 952.
    1 atoms in group 953.
    1 atoms in group 954.
    1 atoms in group 955.
    1 atoms in group 956.
    1 atoms in group 957.
    1 atoms in group 958.
    1 atoms in group 959.
    1 atoms in group 960.
    1 atoms in group 961.
    1 atoms in group 962.
    1 atoms in group 963.
    1 atoms in group 964.
    1 atoms in group 965.
    1 atoms in group 966.
    1 atoms in group 967.
    1 atoms in group 968.
    1 atoms in group 969.
    1 atoms in group 970.
    1 atoms in group 971.
    1 atoms in group 972.
    1 atoms in group 973.
    1 atoms in group 974.
    1 atoms in group 975.
    1 atoms in group 976.
    1 atoms in group 977.
    1 atoms in group 978.
    1 atoms in group 979.
    1 atoms in group 980.
    1 atoms in group 981.
    1 atoms in group 982.
    1 atoms in group 983.
    1 atoms in group 984.
    1 atoms in group 985.
    1 atoms in group 986.
    1 atoms in group 987.
    1 atoms in group 988.
    1 atoms in group 989.
    1 atoms in group 990.
    1 atoms in group 991.
    1 atoms in group 992.
    1 atoms in group 993.
    1 atoms in group 994.
    1 atoms in group 995.
    1 atoms in group 996.
    1 atoms in group 997.
    1 atoms in group 998.
    1 atoms in group 999.
    1 atoms in group 1000.
    1 atoms in group 1001.
    1 atoms in group 1002.
    1 atoms in group 1003.
    1 atoms in group 1004.
    1 atoms in group 1005.
    1 atoms in group 1006.
    1 atoms in group 1007.
    1 atoms in group 1008.
    1 atoms in group 1009.
    1 atoms in group 1010.
    1 atoms in group 1011.
    1 atoms in group 1012.
    1 atoms in group 1013.
    1 atoms in group 1014.
    1 atoms in group 1015.
    1 atoms in group 1016.
    1 atoms in group 1017.
    1 atoms in group 1018.
    1 atoms in group 1019.
    1 atoms in group 1020.
    1 atoms in group 1021.
    1 atoms in group 1022.
    1 atoms in group 1023.
    1 atoms in group 1024.
    1 atoms in group 1025.
    1 atoms in group 1026.
    1 atoms in group 1027.
    1 atoms in group 1028.
    1 atoms in group 1029.
    1 atoms in group 1030.
    1 atoms in group 1031.
    1 atoms in group 1032.
    1 atoms in group 1033.
    1 atoms in group 1034.
    1 atoms in group 1035.
    1 atoms in group 1036.
    1 atoms in group 1037.
    1 atoms in group 1038.
    1 atoms in group 1039.
    1 atoms in group 1040.
    1 atoms in group 1041.
    1 atoms in group 1042.
    1 atoms in group 1043.
    1 atoms in group 1044.
    1 atoms in group 1045.
    1 atoms in group 1046.
    1 atoms in group 1047.
    1 atoms in group 1048.
    1 atoms in group 1049.
    1 atoms in group 1050.
    1 atoms in group 1051.
    1 atoms in group 1052.
    1 atoms in group 1053.
    1 atoms in group 1054.
    1 atoms in group 1055.
    1 atoms in group 1056.
    1 atoms in group 1057.
    1 atoms in group 1058.
    1 atoms in group 1059.
    1 atoms in group 1060.
    1 atoms in group 1061.
    1 atoms in group 1062.
    1 atoms in group 1063.
    1 atoms in group 1064.
    1 atoms in group 1065.
    1 atoms in group 1066.
    1 atoms in group 1067.
    1 atoms in group 1068.
    1 atoms in group 1069.
    1 atoms in group 1070.
    1 atoms in group 1071.
    1 atoms in group 1072.
    1 atoms in group 1073.
    1 atoms in group 1074.
    1 atoms in group 1075.
    1 atoms in group 1076.
    1 atoms in group 1077.
    1 atoms in group 1078.
    1 atoms in group 1079.
    1 atoms in group 1080.
    1 atoms in group 1081.
    1 atoms in group 1082.
    1 atoms in group 1083.
    1 atoms in group 1084.
    1 atoms in group 1085.
    1 atoms in group 1086.
    1 atoms in group 1087.
    1 atoms in group 1088.
    1 atoms in group 1089.
    1 atoms in group 1090.
    1 atoms in group 1091.
    1 atoms in group 1092.
    1 atoms in group 1093.
    1 atoms in group 1094.
    1 atoms in group 1095.
    1 atoms in group 1096.
    1 atoms in group 1097.
    1 atoms in group 1098.
    1 atoms in group 1099.
    1 atoms in group 1100.
    1 atoms in group 1101.
    1 atoms in group 1102.
    1 atoms in group 1103.
    1 atoms in group 1104.
    1 atoms in group 1105.
    1 atoms in group 1106.
    1 atoms in group 1107.
    1 atoms in group 1108.
    1 atoms in group 1109.
    1 atoms in group 1110.
    1 atoms in group 1111.
    1 atoms in group 1112.
    1 atoms in group 1113.
    1 atoms in group 1114.
    1 atoms in group 1115.
    1 atoms in group 1116.
    1 atoms in group 1117.
    1 atoms in group 1118.
    1 atoms in group 1119.
    1 atoms in group 1120.
    1 atoms in group 1121.
    1 atoms in group 1122.
    1 atoms in group 1123.
    1 atoms in group 1124.
    1 atoms in group 1125.
    1 atoms in group 1126.
    1 atoms in group 1127.
    1 atoms in group 1128.
    1 atoms in group 1129.
    1 atoms in group 1130.
    1 atoms in group 1131.
    1 atoms in group 1132.
    1 atoms in group 1133.
    1 atoms in group 1134.
    1 atoms in group 1135.
    1 atoms in group 1136.
    1 atoms in group 1137.
    1 atoms in group 1138.
    1 atoms in group 1139.
    1 atoms in group 1140.
    1 atoms in group 1141.
    1 atoms in group 1142.
    1 atoms in group 1143.
    1 atoms in group 1144.
    1 atoms in group 1145.
    1 atoms in group 1146.
    1 atoms in group 1147.
    1 atoms in group 1148.
    1 atoms in group 1149.
    1 atoms in group 1150.
    1 atoms in group 1151.
    1 atoms in group 1152.
    1 atoms in group 1153.
    1 atoms in group 1154.
    1 atoms in group 1155.
    1 atoms in group 1156.
    1 atoms in group 1157.
    1 atoms in group 1158.
    1 atoms in group 1159.
    1 atoms in group 1160.
    1 atoms in group 1161.
    1 atoms in group 1162.
    1 atoms in group 1163.
    1 atoms in group 1164.
    1 atoms in group 1165.
    1 atoms in group 1166.
    1 atoms in group 1167.
    1 atoms in group 1168.
    1 atoms in group 1169.
    1 atoms in group 1170.
    1 atoms in group 1171.
    1 atoms in group 1172.
    1 atoms in group 1173.
    1 atoms in group 1174.
    1 atoms in group 1175.
    1 atoms in group 1176.
    1 atoms in group 1177.
    1 atoms in group 1178.
    1 atoms in group 1179.
    1 atoms in group 1180.
    1 atoms in group 1181.
    1 atoms in group 1182.
    1 atoms in group 1183.
    1 atoms in group 1184.
    1 atoms in group 1185.
    1 atoms in group 1186.
    1 atoms in group 1187.
    1 atoms in group 1188.
    1 atoms in group 1189.
    1 atoms in group 1190.
    1 atoms in group 1191.
    1 atoms in group 1192.
    1 atoms in group 1193.
    1 atoms in group 1194.
    1 atoms in group 1195.
    1 atoms in group 1196.
    1 atoms in group 1197.
    1 atoms in group 1198.
    1 atoms in group 1199.
    1 atoms in group 1200.
    1 atoms in group 1201.
    1 atoms in group 1202.
    1 atoms in group 1203.
    1 atoms in group 1204.
    1 atoms in group 1205.
    1 atoms in group 1206.
    1 atoms in group 1207.
    1 atoms in group 1208.
    1 atoms in group 1209.
    1 atoms in group 1210.
    1 atoms in group 1211.
    1 atoms in group 1212.
    1 atoms in group 1213.
    1 atoms in group 1214.
    1 atoms in group 1215.
    1 atoms in group 1216.
    1 atoms in group 1217.
    1 atoms in group 1218.
    1 atoms in group 1219.
    1 atoms in group 1220.
    1 atoms in group 1221.
    1 atoms in group 1222.
    1 atoms in group 1223.
    1 atoms in group 1224.
    1 atoms in group 1225.
    1 atoms in group 1226.
    1 atoms in group 1227.
    1 atoms in group 1228.
    1 atoms in group 1229.
    1 atoms in group 1230.
    1 atoms in group 1231.
    1 atoms in group 1232.
    1 atoms in group 1233.
    1 atoms in group 1234.
    1 atoms in group 1235.
    1 atoms in group 1236.
    1 atoms in group 1237.
    1 atoms in group 1238.
    1 atoms in group 1239.
    1 atoms in group 1240.
    1 atoms in group 1241.
    1 atoms in group 1242.
    1 atoms in group 1243.
    1 atoms in group 1244.
    1 atoms in group 1245.
    1 atoms in group 1246.
    1 atoms in group 1247.
    1 atoms in group 1248.
    1 atoms in group 1249.
    1 atoms in group 1250.
    1 atoms in group 1251.
    1 atoms in group 1252.
    1 atoms in group 1253.
    1 atoms in group 1254.
    1 atoms in group 1255.
    1 atoms in group 1256.
    1 atoms in group 1257.
    1 atoms in group 1258.
    1 atoms in group 1259.
    1 atoms in group 1260.
    1 atoms in group 1261.
    1 atoms in group 1262.
    1 atoms in group 1263.
    1 atoms in group 1264.
    1 atoms in group 1265.
    1 atoms in group 1266.
    1 atoms in group 1267.
    1 atoms in group 1268.
    1 atoms in group 1269.
    1 atoms in group 1270.
    1 atoms in group 1271.
    1 atoms in group 1272.
    1 atoms in group 1273.
    1 atoms in group 1274.
    1 atoms in group 1275.
    1 atoms in group 1276.
    1 atoms in group 1277.
    1 atoms in group 1278.
    1 atoms in group 1279.
    1 atoms in group 1280.
    1 atoms in group 1281.
    1 atoms in group 1282.
    1 atoms in group 1283.
    1 atoms in group 1284.
    1 atoms in group 1285.
    1 atoms in group 1286.
    1 atoms in group 1287.
    1 atoms in group 1288.
    1 atoms in group 1289.
    1 atoms in group 1290.
    1 atoms in group 1291.
    1 atoms in group 1292.
    1 atoms in group 1293.
    1 atoms in group 1294.
    1 atoms in group 1295.
    1 atoms in group 1296.
    1 atoms in group 1297.
    1 atoms in group 1298.
    1 atoms in group 1299.
    1 atoms in group 1300.
    1 atoms in group 1301.
    1 atoms in group 1302.
    1 atoms in group 1303.
    1 atoms in group 1304.
    1 atoms in group 1305.
    1 atoms in group 1306.
    1 atoms in group 1307.
    1 atoms in group 1308.
    1 atoms in group 1309.
    1 atoms in group 1310.
    1 atoms in group 1311.
    1 atoms in group 1312.
    1 atoms in group 1313.
    1 atoms in group 1314.
    1 atoms in group 1315.
    1 atoms in group 1316.
    1 atoms in group 1317.
    1 atoms in group 1318.
    1 atoms in group 1319.
    1 atoms in group 1320.
    1 atoms in group 1321.
    1 atoms in group 1322.
    1 atoms in group 1323.
    1 atoms in group 1324.
    1 atoms in group 1325.
    1 atoms in group 1326.
    1 atoms in group 1327.
    1 atoms in group 1328.
    1 atoms in group 1329.
    1 atoms in group 1330.
    1 atoms in group 1331.
    1 atoms in group 1332.
    1 atoms in group 1333.
    1 atoms in group 1334.
    1 atoms in group 1335.
    1 atoms in group 1336.
    1 atoms in group 1337.
    1 atoms in group 1338.
    1 atoms in group 1339.
    1 atoms in group 1340.
    1 atoms in group 1341.
    1 atoms in group 1342.
    1 atoms in group 1343.
    1 atoms in group 1344.
    1 atoms in group 1345.
    1 atoms in group 1346.
    1 atoms in group 1347.
    1 atoms in group 1348.
    1 atoms in group 1349.
    1 atoms in group 1350.
    1 atoms in group 1351.
    1 atoms in group 1352.
    1 atoms in group 1353.
    1 atoms in group 1354.
    1 atoms in group 1355.
    1 atoms in group 1356.
    1 atoms in group 1357.
    1 atoms in group 1358.
    1 atoms in group 1359.
    1 atoms in group 1360.
    1 atoms in group 1361.
    1 atoms in group 1362.
    1 atoms in group 1363.
    1 atoms in group 1364.
    1 atoms in group 1365.
    1 atoms in group 1366.
    1 atoms in group 1367.
    1 atoms in group 1368.
    1 atoms in group 1369.
    1 atoms in group 1370.
    1 atoms in group 1371.
    1 atoms in group 1372.
    1 atoms in group 1373.
    1 atoms in group 1374.
    1 atoms in group 1375.
    1 atoms in group 1376.
    1 atoms in group 1377.
    1 atoms in group 1378.
    1 atoms in group 1379.
    1 atoms in group 1380.
    1 atoms in group 1381.
    1 atoms in group 1382.
    1 atoms in group 1383.
    1 atoms in group 1384.
    1 atoms in group 1385.
    1 atoms in group 1386.
    1 atoms in group 1387.
    1 atoms in group 1388.
    1 atoms in group 1389.
    1 atoms in group 1390.
    1 atoms in group 1391.
    1 atoms in group 1392.
    1 atoms in group 1393.
    1 atoms in group 1394.
    1 atoms in group 1395.
    1 atoms in group 1396.
    1 atoms in group 1397.
    1 atoms in group 1398.
    1 atoms in group 1399.
    1 atoms in group 1400.
    1 atoms in group 1401.
    1 atoms in group 1402.
    1 atoms in group 1403.
    1 atoms in group 1404.
    1 atoms in group 1405.
    1 atoms in group 1406.
    1 atoms in group 1407.
    1 atoms in group 1408.
    1 atoms in group 1409.
    1 atoms in group 1410.
    1 atoms in group 1411.
    1 atoms in group 1412.
    1 atoms in group 1413.
    1 atoms in group 1414.
    1 atoms in group 1415.
    1 atoms in group 1416.
    1 atoms in group 1417.
    1 atoms in group 1418.
    1 atoms in group 1419.
    1 atoms in group 1420.
    1 atoms in group 1421.
    1 atoms in group 1422.
    1 atoms in group 1423.
    1 atoms in group 1424.
    1 atoms in group 1425.
    1 atoms in group 1426.
    1 atoms in group 1427.
    1 atoms in group 1428.
    1 atoms in group 1429.
    1 atoms in group 1430.
    1 atoms in group 1431.
    1 atoms in group 1432.
    1 atoms in group 1433.
    1 atoms in group 1434.
    1 atoms in group 1435.
    1 atoms in group 1436.
    1 atoms in group 1437.
    1 atoms in group 1438.
    1 atoms in group 1439.
    1 atoms in group 1440.
    1 atoms in group 1441.
    1 atoms in group 1442.
    1 atoms in group 1443.
    1 atoms in group 1444.
    1 atoms in group 1445.
    1 atoms in group 1446.
    1 atoms in group 1447.
    1 atoms in group 1448.
    1 atoms in group 1449.
    1 atoms in group 1450.
    1 atoms in group 1451.
    1 atoms in group 1452.
    1 atoms in group 1453.
    1 atoms in group 1454.
    1 atoms in group 1455.
    1 atoms in group 1456.
    1 atoms in group 1457.
    1 atoms in group 1458.
    1 atoms in group 1459.
    1 atoms in group 1460.
    1 atoms in group 1461.
    1 atoms in group 1462.
    1 atoms in group 1463.
    1 atoms in group 1464.
    1 atoms in group 1465.
    1 atoms in group 1466.
    1 atoms in group 1467.
    1 atoms in group 1468.
    1 atoms in group 1469.
    1 atoms in group 1470.
    1 atoms in group 1471.
    1 atoms in group 1472.
    1 atoms in group 1473.
    1 atoms in group 1474.
    1 atoms in group 1475.
    1 atoms in group 1476.
    1 atoms in group 1477.
    1 atoms in group 1478.
    1 atoms in group 1479.
    1 atoms in group 1480.
    1 atoms in group 1481.
    1 atoms in group 1482.
    1 atoms in group 1483.
    1 atoms in group 1484.
    1 atoms in group 1485.
    1 atoms in group 1486.
    1 atoms in group 1487.
    1 atoms in group 1488.
    1 atoms in group 1489.
    1 atoms in group 1490.
    1 atoms in group 1491.
    1 atoms in group 1492.
    1 atoms in group 1493.
    1 atoms in group 1494.
    1 atoms in group 1495.
    1 atoms in group 1496.
    1 atoms in group 1497.
    1 atoms in group 1498.
    1 atoms in group 1499.
    1 atoms in group 1500.
    1 atoms in group 1501.
    1 atoms in group 1502.
    1 atoms in group 1503.
    1 atoms in group 1504.
    1 atoms in group 1505.
    1 atoms in group 1506.
    1 atoms in group 1507.
    1 atoms in group 1508.
    1 atoms in group 1509.
    1 atoms in group 1510.
    1 atoms in group 1511.
    1 atoms in group 1512.
    1 atoms in group 1513.
    1 atoms in group 1514.
    1 atoms in group 1515.
    1 atoms in group 1516.
    1 atoms in group 1517.
    1 atoms in group 1518.
    1 atoms in group 1519.
    1 atoms in group 1520.
    1 atoms in group 1521.
    1 atoms in group 1522.
    1 atoms in group 1523.
    1 atoms in group 1524.
    1 atoms in group 1525.
    1 atoms in group 1526.
    1 atoms in group 1527.
    1 atoms in group 1528.
    1 atoms in group 1529.
    1 atoms in group 1530.
    1 atoms in group 1531.
    1 atoms in group 1532.
    1 atoms in group 1533.
    1 atoms in group 1534.
    1 atoms in group 1535.
There are 2 atom types.
    512 atoms of type 0.
    1024 atoms of type 1.
Initialized velocities with default T = 300 K.

---------------------------------------------------------------
Finished initializing positions and related parameters.
---------------------------------------------------------------


---------------------------------------------------------------
Started executing the commands in run.in.
2025-01-10 22:34:59.873770: I tensorflow/core/platform/cpu_feature_guard.cc:210] This TensorFlow binary is optimized to use available CPU instructions in performance-critical operations.
To enable the following instructions: AVX2 AVX512F AVX512_VNNI FMA, in other operations, rebuild TensorFlow with the appropriate compiler flags.
W0000 00:00:1736519699.875500   16200 gpu_device.cc:2344] Cannot dlopen some GPU libraries. Please make sure the missing libraries mentioned above are installed properly if you would like to use GPU. Follow the guide at https://www.tensorflow.org/install/gpu for how to download and setup the required libraries for your platform.
Skipping registering GPU devices...
WARNING: All log messages before absl::InitializeLog() is called are written to STDERR
I0000 00:00:1736519699.911654   16200 mlir_graph_optimization_pass.cc:401] MLIR V1 optimization pass is not enabled
---------------------------------------------------------------


Initialize deep potential by the file: DNN_seed2.pb and 1 gpu(s).

---------------------------------------------------------------
  ++ cutoff: 6.000000 ++ 
  ++ numb_types: 2 ++ 
  ++ numb_types_spin: 0 ++ 
  ++ dim_fparam: 0 ++ 
  ++ dim_aparam: 0 ++ 
  ++ O H ++
---------------------------------------------------------------
Time step for this run is 0.5 fs.
Use NVT ensemble for this run.
    choose the Berendsen method.
    initial temperature is 330 K.
    final temperature is 330 K.
    tau_T is 100 time_step.
Dump thermo every 10 steps.
Dump extended XYZ.
    every 1000 steps.
Run 10000 steps.
    1000 steps completed.
    2000 steps completed.
    3000 steps completed.
    4000 steps completed.
    5000 steps completed.
    6000 steps completed.
    7000 steps completed.
    8000 steps completed.
    9000 steps completed.
    10000 steps completed.

---------------------------------------------------------------
Time used for this run = 18592.2 second.
Speed of this run = 826.153 atom*step/second.
---------------------------------------------------------------

Use NVT ensemble for this run.
    choose the Berendsen method.
    initial temperature is 330 K.
    final temperature is 330 K.
    tau_T is 100 time_step.
Compute self diffusion coefficient (SDC).
    sample interval is 2.
    number of correlation steps is 5000.
Run 10000 steps.
    1000 steps completed.
    2000 steps completed.
    3000 steps completed.
    4000 steps completed.
    5000 steps completed.
    6000 steps completed.
    7000 steps completed.
    8000 steps completed.
    9000 steps completed.
    10000 steps completed.

---------------------------------------------------------------
Time used for this run = 18562.9 second.
Speed of this run = 827.458 atom*step/second.
---------------------------------------------------------------

Use NVT ensemble for this run.
    choose the Berendsen method.
    initial temperature is 330 K.
    final temperature is 330 K.
    tau_T is 100 time_step.
Compute self diffusion coefficient (SDC).
    sample interval is 2.
    number of correlation steps is 5000.
Run 10000 steps.
    1000 steps completed.
    2000 steps completed.
    3000 steps completed.
