216
Lattice="25.1936059 0.0000008 0.0000000 -0.0000009 29.0501643 0.0000000 0.0000000 0.0000000 14.2768602" Energy=-41746.077008 Virial="1.550601 0.000000 0.000000 0.000000 1.346211 0.000000 0.000000 0.000000 -113.278974" Properties=species:S:1:pos:R:3:force:R:3
C	    2.130800	   -0.074746	    7.138430	0.00324 -0.00675 0.00000
C	    0.688667	   -0.075066	    7.138430	-0.00956 -0.00567 0.00000
C	    0.688440	   12.139715	    7.138430	-0.00696 0.00405 0.00000
C	   -0.039756	   10.852764	    7.138430	0.00045 0.00629 0.00000
C	    2.132437	   12.139744	    7.138430	-0.00075 0.00454 0.00000
C	    2.885423	   10.855030	    7.138430	-0.00097 0.00548 0.00000
C	    0.681462	    9.609417	    7.138430	-0.00443 -0.00567 0.00000
C	    2.167683	    9.611828	    7.138430	-0.00649 -0.00102 0.00000
C	    4.879724	    9.713736	    7.138430	0.00298 0.01500 0.00000
C	    6.369951	    9.711732	    7.138430	-0.00641 0.00386 0.00000
C	    4.155156	    8.468472	    7.138430	0.00229 -0.00026 0.00000
C	    7.086885	    8.463097	    7.138430	0.00905 -0.01413 0.00000
C	    4.886778	    7.187330	    7.138430	-0.00297 -0.00378 0.00000
C	    6.328785	    7.188376	    7.138430	-0.00407 -0.00407 0.00000
C	    4.888013	    4.876826	    7.138430	-0.00533 0.00591 0.00000
C	    2.889757	    1.199423	    7.138430	0.01126 -0.01323 0.00000
C	   -0.042728	    1.206163	    7.138430	0.00123 0.00159 0.00000
C	    6.367986	    2.349694	    7.138430	-0.00625 -0.00540 0.00000
C	    4.881740	    2.346556	    7.138430	-0.00423 -0.01053 0.00000
C	    2.172445	    2.448261	    7.138430	-0.00455 -0.00178 0.00000
C	    0.682041	    2.451166	    7.138430	0.00168 0.01030 0.00000
C	    7.085853	    3.593041	    7.138430	0.00309 0.00361 0.00000
C	    4.160321	    3.589555	    7.138430	-0.00293 0.00419 0.00000
C	    6.332211	    4.877523	    7.138430	-0.00184 0.00661 0.00000
C	   10.528660	   -0.074746	    7.138430	0.00324 -0.00675 0.00000
C	    9.086527	   -0.075065	    7.138430	-0.00956 -0.00566 0.00000
C	    9.086300	   12.139715	    7.138430	-0.00696 0.00405 0.00000
C	    8.358104	   10.852764	    7.138430	0.00045 0.00628 0.00000
C	   10.530297	   12.139744	    7.138430	-0.00075 0.00453 0.00000
C	   11.283284	   10.855030	    7.138430	-0.00096 0.00548 0.00000
C	    9.079322	    9.609417	    7.138430	-0.00444 -0.00568 0.00000
C	   10.565568	    9.611828	    7.138430	-0.00649 -0.00102 0.00000
C	   13.277584	    9.713736	    7.138430	0.00299 0.01500 0.00000
C	   14.767811	    9.711732	    7.138430	-0.00642 0.00386 0.00000
C	   12.553016	    8.468472	    7.138430	0.00230 -0.00026 0.00000
C	   15.484721	    8.463127	    7.138430	0.00905 -0.01412 0.00000
C	   13.284639	    7.187331	    7.138430	-0.00297 -0.00378 0.00000
C	   14.726620	    7.188376	    7.138430	-0.00406 -0.00406 0.00000
C	   13.285873	    4.876826	    7.138430	-0.00533 0.00592 0.00000
C	   11.287617	    1.199394	    7.138430	0.01126 -0.01323 0.00000
C	    8.355157	    1.206163	    7.138430	0.00123 0.00159 0.00000
C	   14.765846	    2.349694	    7.138430	-0.00625 -0.00540 0.00000
C	   13.279600	    2.346556	    7.138430	-0.00422 -0.01052 0.00000
C	   10.570305	    2.448261	    7.138430	-0.00454 -0.00178 0.00000
C	    9.079901	    2.451166	    7.138430	0.00168 0.01030 0.00000
C	   15.483713	    3.593041	    7.138430	0.00310 0.00361 0.00000
C	   12.558181	    3.589555	    7.138430	-0.00292 0.00419 0.00000
C	   14.730046	    4.877523	    7.138430	-0.00183 0.00662 0.00000
C	   18.926520	   -0.074745	    7.138430	0.00324 -0.00674 0.00000
C	   17.484388	   -0.075065	    7.138430	-0.00956 -0.00566 0.00000
C	   17.484161	   12.139716	    7.138430	-0.00697 0.00406 0.00000
C	   16.755965	   10.852764	    7.138430	0.00045 0.00628 0.00000
C	   18.928182	   12.139745	    7.138430	-0.00074 0.00454 0.00000
C	   19.681169	   10.855030	    7.138430	-0.00096 0.00548 0.00000
C	   17.477182	    9.609417	    7.138430	-0.00443 -0.00567 0.00000
C	   18.963428	    9.611828	    7.138430	-0.00649 -0.00101 0.00000
C	   21.675445	    9.713737	    7.138430	0.00299 0.01500 0.00000
C	   23.165671	    9.711732	    7.138430	-0.00641 0.00386 0.00000
C	   20.950902	    8.468472	    7.138430	0.00230 -0.00026 0.00000
C	   23.882606	    8.463127	    7.138430	0.00905 -0.01412 0.00000
C	   21.682499	    7.187360	    7.138430	-0.00297 -0.00378 0.00000
C	   23.124505	    7.188377	    7.138430	-0.00406 -0.00406 0.00000
C	   21.683759	    4.876826	    7.138430	-0.00532 0.00592 0.00000
C	   19.685477	    1.199424	    7.138430	0.01126 -0.01322 0.00000
C	   16.753017	    1.206163	    7.138430	0.00124 0.00160 0.00000
C	   23.163707	    2.349694	    7.138430	-0.00625 -0.00540 0.00000
C	   21.677460	    2.346557	    7.138430	-0.00422 -0.01052 0.00000
C	   18.968165	    2.448261	    7.138430	-0.00455 -0.00177 0.00000
C	   17.477762	    2.451166	    7.138430	0.00169 0.01031 0.00000
C	   23.881573	    3.593041	    7.138430	0.00309 0.00360 0.00000
C	   20.956041	    3.589555	    7.138430	-0.00292 0.00419 0.00000
C	   23.127932	    4.877523	    7.138430	-0.00183 0.00661 0.00000
C	    2.130875	   14.450394	    7.138430	-0.00417 -0.00220 0.00000
C	    0.688692	   14.450104	    7.138430	-0.00210 -0.00142 0.00000
C	    0.688389	   26.664652	    7.138430	0.00127 0.00352 0.00000
C	   -0.039756	   25.377701	    7.138430	-0.00062 0.00730 0.00000
C	    2.132462	   26.664681	    7.138430	-0.00871 0.00376 0.00000
C	    2.885448	   25.379967	    7.138430	0.00017 0.00671 0.00000
C	    0.681461	   24.134383	    7.138430	-0.00265 -0.01334 0.00000
C	    2.167707	   24.136794	    7.138430	-0.00803 -0.00884 0.00000
C	    4.879724	   24.238702	    7.138430	0.00165 0.00738 0.00000
C	    6.369976	   24.236668	    7.138430	-0.00493 -0.00417 0.00000
C	    4.155156	   22.993379	    7.138430	0.00479 -0.00047 0.00000
C	    7.086935	   22.987976	    7.138430	0.00706 -0.01457 0.00000
C	    4.886828	   21.712267	    7.138430	-0.00941 -0.00349 0.00000
C	    6.328784	   21.713284	    7.138430	0.00258 -0.00403 0.00000
C	    4.888063	   19.401821	    7.138430	0.00076 0.00147 0.00000
C	    2.889857	   15.724534	    7.138430	0.00699 -0.01703 0.00000
C	   -0.042678	   15.731303	    7.138430	0.00576 -0.00182 0.00000
C	    6.368036	   16.874718	    7.138430	-0.00671 -0.00421 0.00000
C	    4.881815	   16.871580	    7.138430	-0.00373 -0.00925 0.00000
C	    2.172494	   16.973343	    7.138430	-0.00536 -0.00035 0.00000
C	    0.682091	   16.976277	    7.138430	0.00237 0.01194 0.00000
C	    7.085928	   18.118065	    7.138430	-0.00233 0.00808 0.00000
C	    4.160371	   18.114579	    7.138430	0.00272 0.00859 0.00000
C	    6.332286	   19.402518	    7.138430	-0.00753 0.00172 0.00000
C	   10.528760	   14.450395	    7.138430	-0.00417 -0.00219 0.00000
C	    9.086577	   14.450104	    7.138430	-0.00210 -0.00142 0.00000
C	    9.086249	   26.664652	    7.138430	0.00127 0.00351 0.00000
C	    8.358129	   25.377672	    7.138430	-0.00062 0.00730 0.00000
C	   10.530322	   26.664681	    7.138430	-0.00871 0.00375 0.00000
C	   11.283308	   25.379967	    7.138430	0.00017 0.00671 0.00000
C	    9.079321	   24.134383	    7.138430	-0.00265 -0.01334 0.00000
C	   10.565568	   24.136794	    7.138430	-0.00803 -0.00884 0.00000
C	   13.277584	   24.238702	    7.138430	0.00166 0.00739 0.00000
C	   14.767811	   24.236669	    7.138430	-0.00492 -0.00416 0.00000
C	   12.553041	   22.993380	    7.138430	0.00479 -0.00047 0.00000
C	   15.484770	   22.988006	    7.138430	0.00707 -0.01456 0.00000
C	   13.284688	   21.712268	    7.138430	-0.00939 -0.00349 0.00000
C	   14.726645	   21.713284	    7.138430	0.00259 -0.00402 0.00000
C	   13.285923	   19.401821	    7.138430	0.00076 0.00147 0.00000
C	   11.287718	   15.724535	    7.138430	0.00699 -0.01702 0.00000
C	    8.355182	   15.731303	    7.138430	0.00576 -0.00182 0.00000
C	   14.765896	   16.874747	    7.138430	-0.00671 -0.00420 0.00000
C	   13.279675	   16.871581	    7.138430	-0.00372 -0.00925 0.00000
C	   10.570380	   16.973343	    7.138430	-0.00536 -0.00035 0.00000
C	    9.079951	   16.976277	    7.138430	0.00236 0.01193 0.00000
C	   15.483788	   18.118065	    7.138430	-0.00233 0.00808 0.00000
C	   12.558231	   18.114579	    7.138430	0.00272 0.00859 0.00000
C	   14.730147	   19.402518	    7.138430	-0.00753 0.00173 0.00000
C	   18.926620	   14.450395	    7.138430	-0.00417 -0.00219 0.00000
C	   17.484438	   14.450104	    7.138430	-0.00210 -0.00142 0.00000
C	   17.484110	   26.664653	    7.138430	0.00127 0.00352 0.00000
C	   16.755989	   25.377701	    7.138430	-0.00062 0.00730 0.00000
C	   18.928182	   26.664682	    7.138430	-0.00871 0.00376 0.00000
C	   19.681169	   25.379967	    7.138430	0.00018 0.00672 0.00000
C	   17.477182	   24.134383	    7.138430	-0.00265 -0.01333 0.00000
C	   18.963453	   24.136794	    7.138430	-0.00803 -0.00883 0.00000
C	   21.675469	   24.238702	    7.138430	0.00165 0.00739 0.00000
C	   23.165696	   24.236669	    7.138430	-0.00493 -0.00416 0.00000
C	   20.950901	   22.993380	    7.138430	0.00479 -0.00046 0.00000
C	   23.882656	   22.988006	    7.138430	0.00706 -0.01456 0.00000
C	   21.682549	   21.712268	    7.138430	-0.00939 -0.00349 0.00000
C	   23.124505	   21.713285	    7.138430	0.00258 -0.00402 0.00000
C	   21.683783	   19.401821	    7.138430	0.00077 0.00147 0.00000
C	   19.685578	   15.724535	    7.138430	0.00699 -0.01702 0.00000
C	   16.753042	   15.731304	    7.138430	0.00577 -0.00181 0.00000
C	   23.163782	   16.874747	    7.138430	-0.00671 -0.00420 0.00000
C	   21.677535	   16.871581	    7.138430	-0.00372 -0.00925 0.00000
C	   18.968240	   16.973343	    7.138430	-0.00536 -0.00034 0.00000
C	   17.477837	   16.976277	    7.138430	0.00236 0.01194 0.00000
C	   23.881674	   18.118065	    7.138430	-0.00233 0.00808 0.00000
C	   20.956091	   18.114579	    7.138430	0.00272 0.00859 0.00000
C	   23.128007	   19.402518	    7.138430	-0.00753 0.00172 0.00000
N	    0.030912	    3.624880	    7.138430	-0.00561 0.01143 0.00000
N	    6.999590	    6.032993	    7.138430	0.01183 0.00113 0.00000
N	    4.196196	    6.031105	    7.138430	0.00844 0.00085 0.00000
N	    2.815788	    8.437417	    7.138430	0.00432 0.00270 0.00000
N	    0.032625	    8.431113	    7.138430	-0.00501 -0.00334 0.00000
N	    7.018409	   10.883267	    7.138430	0.00034 0.00013 0.00000
N	    4.228318	   10.887159	    7.138430	-0.00603 0.01140 0.00000
N	    2.800848	   13.294633	    7.138430	0.01118 0.00081 0.00000
N	   -0.002646	   13.294401	    7.138430	0.00984 0.00162 0.00000
N	    2.820651	    3.619825	    7.138430	0.00077 0.00024 0.00000
N	    4.233307	    1.167875	    7.138430	-0.00593 -0.00563 0.00000
N	    7.015815	    1.175225	    7.138430	0.00651 0.00074 0.00000
N	    8.428798	    3.624880	    7.138430	-0.00562 0.01143 0.00000
N	   15.397425	    6.033022	    7.138430	0.01185 0.00113 0.00000
N	   12.594057	    6.031105	    7.138430	0.00845 0.00086 0.00000
N	   11.213649	    8.437417	    7.138430	0.00432 0.00270 0.00000
N	    8.430486	    8.431113	    7.138430	-0.00502 -0.00335 0.00000
N	   15.416269	   10.883267	    7.138430	0.00035 0.00013 0.00000
N	   12.626178	   10.887160	    7.138430	-0.00603 0.01140 0.00000
N	   11.198709	   13.294634	    7.138430	0.01118 0.00081 0.00000
N	    8.395214	   13.294401	    7.138430	0.00984 0.00161 0.00000
N	   11.218511	    3.619825	    7.138430	0.00077 0.00023 0.00000
N	   12.631167	    1.167875	    7.138430	-0.00592 -0.00562 0.00000
N	   15.413675	    1.175225	    7.138430	0.00651 0.00075 0.00000
N	   16.826633	    3.624880	    7.138430	-0.00561 0.01144 0.00000
N	   23.795310	    6.033023	    7.138430	0.01184 0.00113 0.00000
N	   20.991917	    6.031105	    7.138430	0.00844 0.00085 0.00000
N	   19.611509	    8.437417	    7.138430	0.00432 0.00270 0.00000
N	   16.828346	    8.431114	    7.138430	-0.00501 -0.00333 0.00000
N	   23.814155	   10.883267	    7.138430	0.00035 0.00013 0.00000
N	   21.024039	   10.887160	    7.138430	-0.00603 0.01141 0.00000
N	   19.596569	   13.294634	    7.138430	0.01118 0.00082 0.00000
N	   16.793075	   13.294402	    7.138430	0.00984 0.00162 0.00000
N	   19.616371	    3.619825	    7.138430	0.00078 0.00023 0.00000
N	   21.029027	    1.167875	    7.138430	-0.00594 -0.00561 0.00000
N	   23.811535	    1.175225	    7.138430	0.00651 0.00075 0.00000
N	    0.030988	   18.149991	    7.138430	-0.00398 0.00805 0.00000
N	    6.999665	   20.557959	    7.138430	0.01083 -0.00146 0.00000
N	    4.196196	   20.556042	    7.138430	0.01054 -0.00192 0.00000
N	    2.815788	   22.962354	    7.138430	0.00575 0.00115 0.00000
N	    0.032650	   22.956050	    7.138430	-0.00624 -0.00517 0.00000
N	    7.018409	   25.408174	    7.138430	-0.00142 -0.00199 0.00000
N	    4.228343	   25.412096	    7.138430	-0.00409 0.00905 0.00000
N	    2.800747	   27.819628	    7.138430	0.01208 -0.00204 0.00000
N	   -0.002671	   27.819338	    7.138430	0.00861 -0.00203 0.00000
N	    2.820701	   18.144936	    7.138430	-0.00070 -0.00335 0.00000
N	    4.233382	   15.692899	    7.138430	-0.00448 -0.00155 0.00000
N	    7.015864	   15.700249	    7.138430	0.00495 0.00461 0.00000
N	    8.428848	   18.149991	    7.138430	-0.00398 0.00805 0.00000
N	   15.397525	   20.557959	    7.138430	0.01083 -0.00146 0.00000
N	   12.594081	   20.556042	    7.138430	0.01054 -0.00192 0.00000
N	   11.213648	   22.962354	    7.138430	0.00576 0.00116 0.00000
N	    8.430536	   22.956050	    7.138430	-0.00624 -0.00518 0.00000
N	   15.416269	   25.408175	    7.138430	-0.00142 -0.00199 0.00000
N	   12.626203	   25.412096	    7.138430	-0.00409 0.00905 0.00000
N	   11.198607	   27.819629	    7.138430	0.01208 -0.00204 0.00000
N	    8.395189	   27.819338	    7.138430	0.00861 -0.00203 0.00000
N	   11.218561	   18.144936	    7.138430	-0.00070 -0.00335 0.00000
N	   12.631242	   15.692899	    7.138430	-0.00448 -0.00154 0.00000
N	   15.413725	   15.700249	    7.138430	0.00495 0.00462 0.00000
N	   16.826708	   18.149991	    7.138430	-0.00398 0.00806 0.00000
N	   23.795411	   20.557960	    7.138430	0.01083 -0.00146 0.00000
N	   20.991942	   20.556071	    7.138430	0.01054 -0.00192 0.00000
N	   19.611534	   22.962354	    7.138430	0.00575 0.00116 0.00000
N	   16.828396	   22.956050	    7.138430	-0.00623 -0.00517 0.00000
N	   23.814154	   25.408204	    7.138430	-0.00142 -0.00198 0.00000
N	   21.024063	   25.412097	    7.138430	-0.00410 0.00905 0.00000
N	   19.596468	   27.819629	    7.138430	0.01208 -0.00204 0.00000
N	   16.793049	   27.819338	    7.138430	0.00861 -0.00202 0.00000
N	   19.616446	   18.144937	    7.138430	-0.00069 -0.00334 0.00000
N	   21.029102	   15.692899	    7.138430	-0.00448 -0.00154 0.00000
N	   23.811585	   15.700249	    7.138430	0.00495 0.00462 0.00000
64
Lattice="7.1438500 0.0000000 0.0000000 0.0000000 7.1438500 0.0000000 0.0000000 0.0000000 7.1438500" Energy=-9902.055910 Properties=species:S:1:pos:R:3:force:R:3
C	    0.019046	    0.010537	    0.001479	-0.45980 0.01096 0.26553
C	    0.019517	    1.788341	    1.788370	-0.48880 0.61172 0.30275
C	    1.786584	    0.007601	    1.805594	0.41194 0.22137 -0.68006
C	    1.795842	    1.802222	    0.009937	0.11280 -0.24181 -0.12961
C	    2.696196	    0.897860	    2.679394	-0.43906 0.15733 0.43488
C	    0.897839	    0.910669	    0.894060	0.32074 -0.34087 0.20058
C	    0.909669	    2.693196	    2.681758	-0.14733 0.00426 0.25814
C	    2.695217	    2.686509	    0.910848	-0.31100 0.20581 -0.38123
C	    3.584505	    0.004979	    0.009316	-0.14871 0.05109 0.10354
C	    3.571968	    1.791020	    1.797178	0.56115 0.18569 -0.21237
C	    5.365481	    0.015345	    1.795850	0.04104 -0.14474 0.07575
C	    5.375976	    1.786963	    0.001357	-0.47855 0.62196 0.38248
C	    6.264478	    0.906690	    2.696896	-0.04559 -0.26000 -0.33723
C	    4.472479	    0.905390	    0.898753	0.06363 -0.10605 0.11296
C	    4.477544	    2.693874	    2.684323	-0.22025 -0.44983 0.22934
C	    6.255734	    2.698489	    0.904869	0.23615 -0.63290 -0.13879
C	    0.011430	    3.579605	    0.009516	-0.18338 0.07715 -0.03231
C	    0.019631	    5.363088	    1.793328	-0.36009 0.11574 -0.05146
C	    1.802958	    3.589477	    1.799071	-0.12632 -0.30682 -0.19995
C	    1.791635	    5.374011	    0.018767	0.07714 -0.50882 -0.34539
C	    2.692596	    4.474129	    2.691353	0.06293 0.05804 -0.12973
C	    0.900147	    4.466728	    0.898639	0.23332 0.32255 0.17257
C	    0.912720	    6.262156	    2.683044	-0.41359 -0.18292 0.26860
C	    2.680623	    6.254619	    0.901761	0.31758 0.21897 0.31721
C	    3.576933	    3.582562	    0.000543	0.24494 -0.01777 0.48033
C	    3.588149	    5.364988	    1.803486	-0.28968 0.03884 -0.42319
C	    5.359573	    3.578219	    1.798164	0.44293 0.26688 -0.23153
C	    5.368510	    5.372425	    0.004072	0.23252 -0.05528 0.22666
C	    6.266878	    4.475222	    2.689345	-0.09745 0.05966 0.02147
C	    4.479680	    4.480716	    0.894060	-0.24762 -0.16942 0.25953
C	    4.467742	    6.254962	    2.696189	0.52638 0.22307 -0.45992
C	    6.259627	    6.264435	    0.901840	0.24738 -0.06277 0.03034
C	    0.007008	    0.001050	    3.582884	0.21876 0.38696 0.01426
C	    0.009573	    1.801986	    5.369225	-0.12153 -0.23479 -0.12076
C	    1.797707	    0.013573	    5.371497	0.11446 -0.09096 -0.32964
C	    1.788877	    1.804879	    3.579355	0.50521 -0.30113 0.04896
C	    2.697053	    0.894810	    6.252433	-0.22054 0.28072 0.51858
C	    0.905783	    0.911148	    4.474036	-0.22448 -0.29088 0.02383
C	    0.896239	    2.689145	    6.251826	0.32231 0.02110 0.41225
C	    2.690260	    2.691245	    4.479673	0.02472 -0.23982 -0.20895
C	    3.590556	    0.006322	    3.572682	-0.25785 0.20343 0.37258
C	    3.587584	    1.787513	    5.376976	-0.17705 0.38387 -0.61324
C	    5.371604	    0.017010	    5.372732	-0.19777 -0.28808 -0.30445
C	    5.367210	    1.788856	    3.590678	0.15157 0.53680 -0.35152
C	    6.256077	    0.900389	    6.261134	0.47969 0.14470 -0.15816
C	    4.476294	    0.905426	    4.469721	0.03067 -0.16675 0.28333
C	    4.469878	    2.698897	    6.256069	0.37544 -0.49018 0.15631
C	    6.257255	    2.689288	    4.480087	0.20208 0.17084 -0.06586
C	    0.018217	    3.591735	    3.591792	-0.35144 -0.45995 -0.49312
C	    0.017702	    5.362417	    5.365024	-0.30706 0.31377 0.09962
C	    1.801858	    3.579883	    5.372947	-0.33433 0.13434 -0.29362
C	    1.804479	    5.371818	    3.574125	-0.09357 -0.02251 0.30931
C	    2.682523	    4.466199	    6.262813	0.07488 0.49435 0.03040
C	    0.903333	    4.479858	    4.473515	0.38489 -0.03976 0.06497
C	    0.905519	    6.259277	    6.265485	0.02170 0.08848 -0.28666
C	    2.697211	    6.267092	    4.470128	-0.25371 -0.19801 0.12674
C	    3.585205	    3.579519	    3.573818	-0.10416 -0.03423 0.46213
C	    3.579712	    5.364267	    5.366910	0.09979 0.14275 0.08327
C	    5.372690	    3.591649	    5.370689	-0.35286 -0.39172 -0.15224
C	    5.374240	    5.372254	    3.574568	-0.40334 -0.26960 0.37520
C	    6.262878	    4.473172	    6.259927	0.09853 0.22271 0.00347
C	    4.466606	    4.466878	    4.477951	0.49522 0.42550 -0.25951
C	    4.483352	    6.265564	    6.267407	-0.34425 -0.25462 -0.37266
C	    6.251940	    6.263613	    4.471064	0.46868 -0.14842 0.23525
