  1.8887545e+00   1.2545547e-02
 -9.0967524e-01   3.6609715e-01
  1.2146285e+00   3.1864982e-02
 -6.4626515e-01   2.0846313e-01
 -2.1164002e+00   1.6198942e-02
  1.1156563e+00   6.7136742e-02
  2.2895432e+00   7.1781248e-02
  3.9486718e+00   3.6720258e-01
 -1.3520467e+00   7.6004140e-02
  3.7093005e+00   6.8534970e-02
  3.7776429e-02   3.8450322e-01
  1.4450631e+00   9.9731926e-03
  2.1965520e-01   3.7420306e-01
  4.5403235e-02   1.7589292e-02
  1.3368133e-01   1.2202940e-01
 -1.5213852e+00   7.4847504e-02
  4.1392126e+00   1.3260154e-01
  6.7128439e+00   3.7896305e-02
  1.3857296e+00   5.6047004e-01
 -2.6139722e+00   3.8173673e-01
  8.8320148e-01   7.9502024e-02
 -1.4528638e+00   3.7367966e-02
  1.3583032e+00   4.3530604e-01
  1.9777534e+00   7.9505801e-02
  1.6722234e+00   7.2969086e-02
  2.2661536e+00   4.1611545e-02
  1.1643945e+00   1.1853559e-01
 -1.5393738e+00   4.0878236e-01
  8.4404516e-01   1.3611391e-01
 -9.3383908e-02   8.1653602e-02
 -2.9789119e+00   3.1787585e-03
  2.0604756e+00   4.2400301e-02
 -7.2474027e-01   3.0845528e-02
 -8.9197040e-01   1.5886123e-01
 -2.7120457e+00   2.2712225e-01
  1.5250748e+00   1.9022484e-01
 -8.8053250e-01   2.5950506e-01
  8.2740712e-01   3.6365423e-02
 -1.2772126e+00   1.8657424e-02
  1.8323559e+00   4.0095653e-02
 -5.9381752e+00   6.0545508e-02
  1.2043319e+00   7.1188612e-03
  2.6783603e-01   2.1758281e-01
 -8.0604166e-01   9.4025530e-02
 -1.3022319e+00   1.6381337e-01
 -1.0466419e+00   3.7621200e-01
 -1.6088551e+00   7.5152509e-02
  9.5235622e-01   1.4623962e-01
 -1.0728265e+00   2.3650782e-01
  1.6879151e+00   1.6697024e-01
 -1.9238074e+00   2.5077678e-02
  5.7012467e+00   8.7168748e-03
  4.9000220e+00   5.0565809e-02
 -2.5620227e+00   1.4392530e-02
 -4.0260983e+00   1.0172989e-02
  4.7242260e-01   4.4425488e-02
  7.8988351e-02   4.0547233e-02
 -9.6968395e-01   3.0935955e-01
  7.4937820e-01   1.9924209e-02
 -2.6876044e-01   2.5819516e-01
 -1.2922516e+00   2.1242062e-02
 -3.0288150e+00   4.0288970e-02
  1.3163762e-01   2.9413587e-01
 -4.2427802e-01   1.9482522e-01
 -2.0611877e+00   1.8592100e-03
 -5.1930606e-01   6.8848237e-02
 -8.3172433e-03   9.5652685e-02
  2.7527267e-01   2.6949611e-01
 -1.0569904e+00   8.8506773e-02
  1.4627321e+00   1.5075220e-01
  1.9360424e+00   1.4091237e-02
  3.7544671e-01   1.4723127e-01
  9.1023266e-01   3.3281893e-03
  4.4899943e-01   4.9942280e-03
  2.7340362e+00   7.0263160e-04
  1.4678034e+00   4.7767260e-03
  3.8138094e+00   5.1182946e-03
 -8.4472013e-01   2.6698837e-03
 -5.4892296e-01   2.7842771e-03
  1.3210607e+00   8.9396071e-03
 -1.1192882e+00   1.6910025e-03
  1.1787474e+00   9.3943560e-03
  1.4227452e+00   7.5174239e-03
  2.0037661e+00   3.2337694e-03
  4.9988370e+00   7.0090829e-03
  1.1892687e+00   9.3661519e-03
 -1.5435897e+00   1.9299758e-03
 -3.0823660e+00   6.5037804e-03
 -2.8623497e+00   1.0409486e-02
  6.2115416e-02   1.0408309e-02
 -2.7365026e+00   8.8394564e-03
 -2.7187529e+00   1.8943021e-02
 -1.1777120e+00   2.2609415e-03
 -1.8100442e+00   1.1283982e-02
 -7.1921349e-01   6.6058147e-03
  4.4493222e+00   1.0386570e-02
  1.7895110e+00   6.9089914e-03
  2.4525867e+00   1.2906285e-02
 -2.3726940e+00   1.7326841e-02
 -9.8653650e-01   3.0944422e-03
 -4.8503530e-01   5.0054416e-03
 -3.4519854e-01   2.4557714e-03
 -5.5355471e-01   2.2537860e-03
 -3.9091499e+00   6.2764422e-03
  1.5107131e+00   3.1147134e-03
 -6.2266439e-01   6.3675805e-03
 -8.1651592e-01   1.8983535e-02
 -1.2067082e+00   4.0477370e-03
  2.8615017e+00   6.9121239e-03
 -2.1203504e+00   3.8595997e-02
  1.8125371e+00   8.8509455e-02
  2.2928548e+00   6.4312808e-02
 -1.2977848e+00   2.7823079e-01
  1.8167958e+00   1.8915401e-01
  4.5968077e-01   2.3472677e-01
  3.0516319e+00   1.4511946e-01
  5.6186209e+00   1.1253808e-01
  1.7142726e+00   1.1698501e-01
 -2.6628351e+00   1.0267359e-01
 -4.6179989e-01   2.3333814e-02
  2.1301739e+00   3.5778467e-02
  2.2751783e-01   1.7915779e-01
  2.7422139e-01   1.7513803e-01
 -8.9265990e-01   1.5000235e-01
  7.3393434e-01   5.6771990e-02
 -6.0614300e-01   1.8796830e-01
  3.7235811e+00   1.4114603e-01
 -2.0582857e+00   3.5954755e-02
  1.3138688e+00   1.0387196e-01
 -4.0037856e-01   3.8215292e-01
  3.8367968e+00   9.0098880e-02
  6.2463417e+00   5.5543419e-02
 -4.1114078e+00   1.3771388e-01
  4.2966950e-01   2.3756428e-02
  4.0396733e+00   6.1996464e-02
 -1.6851339e-01   2.6197782e-02
  8.1708115e-01   1.0891792e-01
  1.3167235e+00   1.5125601e-01
  6.1845627e+00   2.0767735e-02
 -5.4559983e-02   2.3146237e-01
 -2.1151564e+00   6.5965369e-02
  7.2481912e-01   3.7220904e-01
  9.8345566e-01   8.8331670e-02
 -4.3679705e-01   6.9944463e-03
  2.6089323e+00   1.1036586e-01
 -6.5506274e-01   1.1346949e-01
  3.6065869e+00   2.0629503e-02
 -3.0078790e-01   1.3089620e-01
 -1.1674343e+00   1.2247046e-02
 -2.1541195e+00   4.8924270e-01
 -2.4494419e-01   2.3849711e-02
  1.6145483e+00   2.5065172e-02
  1.9192762e+00   1.7639481e-01
  9.6503633e-01   1.7564033e-01
  2.1906146e-01   7.5860538e-02
  2.2968218e+00   2.4915700e-01
  2.1247935e+00   2.4712695e-02
 -1.3244645e-01   1.7727855e-01
  1.7834876e+00   3.3528116e-01
 -2.8811004e+00   8.8826576e-03
  4.1887331e+00   1.8139735e-02
  2.8959043e+00   6.3136198e-02
  1.5341862e-02   9.0026595e-02
  1.7924513e+00   1.1004286e-01
  9.2646360e-02   3.1393290e-02
  4.8269957e-01   5.1764909e-02
 -1.0955132e+00   2.5667930e-01
  4.0714273e+00   4.7043275e-02
 -2.8345358e+00   2.0705426e-02
  1.7179985e+00   3.9478622e-02
  3.1392615e-02   1.8668412e-01
 -2.8254724e-01   1.5282631e-01
 -6.2624162e-01   1.4557163e-01
 -1.3969867e+00   3.6390010e-02
  1.8611763e+00   7.3835397e-01
  2.8588209e-01   1.2576595e-01
 -1.7223827e+00   1.3774680e-01
 -2.7868700e+00   3.8881221e-01
 -1.3833987e+00   5.9959280e-01
  6.9510589e+00   5.4132476e-02
 -1.7414899e+00   1.6568633e-02
  1.7117020e-01   5.1715776e-02
 -1.3267190e+00   7.3242164e-03
  1.1275525e+00   2.5357898e-02
  2.0448205e+00   3.5701349e-01
  1.4190159e+00   3.2743163e-02
  6.7653596e-01   3.7687190e-02
 -3.4559327e-01   2.0835309e-01
 -6.0691005e-01   7.2479673e-02
 -4.9247792e-01   1.9084707e-01
 -2.1791754e+00   2.1137835e-02
 -4.3033481e-01   1.6593127e-02
 -1.5243558e+00   6.7494318e-02
  8.9632696e-01   7.4691186e-03
 -4.0865651e-01   1.6766214e-01
  6.7372066e-01   2.8417226e-02
  1.0537623e+00   1.2294132e-01
  5.6363702e-01   9.1698989e-02
 -1.6536154e+00   4.0117163e-02
  2.1574426e+00   3.4259740e-01
 -1.6660665e-01   1.1129879e-01
  8.0943078e-01   5.6478344e-02
  1.3547225e+00   9.3009435e-03
  1.6635374e+00   4.3235365e-02
  2.3653522e+00   1.4045222e-02
 -1.7991757e+00   4.3332372e-02
  2.5354989e+00   8.7196603e-02
  7.6437372e-01   4.0322881e-02
  9.8879617e-01   3.4120235e-01
 -3.2276478e-01   1.9569479e-02
 -4.1288738e+00   1.0956337e-01
  1.5699760e+00   1.0191039e-01
 -9.9554516e-02   1.4929874e-01
  1.7602491e+00   2.6666397e-01
 -2.9841819e-01   4.9973868e-02
  2.0476124e+00   2.2423133e-02
  1.7254826e+00   3.1084161e-02
  7.5084054e-01   1.1586769e-02
  5.3261018e-01   8.1855834e-02
  3.9183815e+00   2.1042107e-02
 -1.5147817e+00   7.1772419e-02
  4.4912844e+00   2.6506124e-02
 -6.7490304e-01   6.2259875e-02
 -3.2444048e+00   3.5858247e-02
  3.5340893e+00   1.9405672e-02
  2.3485509e-01   1.6154769e-01
 -1.2356367e+00   7.5982243e-02
  1.6251485e+00   4.9023304e-02
 -4.4834700e+00   8.0572806e-02
 -2.8251812e-02   6.5117039e-02
 -2.2934985e+00   3.3471249e-02
  1.6735214e+00   1.3217022e-01
  1.9263400e+00   1.1204071e-01
 -4.6428089e+00   3.2969728e-02
  1.9162275e-01   7.1553014e-02
  5.1485807e-01   2.0441644e-02
  2.3277968e-01   2.7810900e-02
 -6.5161633e-01   8.6232059e-02
 -3.6581323e-02   1.0797391e-01
 -2.7795486e+00   2.8308323e-02
 -6.9225967e-01   3.2678209e-02
 -1.6723866e+00   1.4818068e-01
 -9.5690608e-02   3.1535916e-02
  5.4664164e+00   5.6862060e-02
 -1.5879236e+00   2.0778885e-02
  9.3092835e-01   7.4279480e-02
 -1.2509888e+00   2.9772090e-02
  2.4582331e+00   8.4290922e-02
  1.7067521e+00   1.7492926e-03
 -8.3733141e-01   5.2245162e-02
  1.2911191e+00   4.7957455e-03
  4.0038535e-01   3.1847339e-02
 -2.5679629e+00   6.5064966e-03
 -6.2037808e-01   7.9474151e-03
  1.2217263e+00   6.5827831e-03
  2.4679787e+00   2.1653334e-02
 -2.9600129e+00   5.1167063e-02
  1.1418498e+00   1.3072173e-02
  2.9637525e+00   1.1997273e-02
 -6.4855701e-01   1.7738814e-02
 -3.2282426e+00   8.8685257e-03
 -1.1171967e+00   2.9472549e-02
 -1.5654372e+00   1.4239628e-02
 -9.9874872e-01   2.7124872e-03
  7.8045380e-01   1.5160014e-03
 -9.6206141e+00   3.2167125e-02
  3.6692774e-01   1.2839313e-02
  1.2136034e+00   2.7686456e-02
  1.1902493e-01   5.4001406e-02
 -3.7822948e+00   9.1361953e-03
  3.1278841e+00   3.7897055e-03
 -4.9541125e-01   4.7234688e-02
  6.4069676e+00   1.0330387e-02
 -2.6623747e-01   5.8133084e-02
  3.0723953e-01   2.1301296e-02
  4.4356732e+00   2.2958644e-02
  1.0678028e+00   3.3239391e-02
 -7.1447545e-01   4.5050632e-02
  5.6584114e-01   2.9821986e-02
 -5.6487107e+00   9.8128365e-03
  5.8957329e+00   2.7062878e-02
  3.6833337e-01   4.6561989e-03
 -1.6586523e+00   2.3349350e-02
  5.8721536e-01   3.6991600e-02
 -4.2125869e+00   1.3568507e-02
  6.0812002e-01   2.1203000e-02
  2.2014730e+00   1.0331410e-02
 -3.6450124e+00   1.3510020e-02
  3.9282138e+00   3.4040824e-02
  2.3262160e+00   1.9056295e-03
 -3.9863501e+00   2.3591744e-02
  2.6332383e+00   6.6787153e-03
 -1.1216369e+00   6.5604396e-02
  1.7307034e-01   3.8335919e-02
  2.9679282e+00   2.2801064e-02
  7.0009089e-01   1.1189453e-02
  8.2808912e-01   4.1140253e-03
 -3.1339207e-01   5.2791618e-02
  3.1685956e+00   5.2196588e-02
  1.9530756e+00   4.2371703e-03
  5.5459279e-01   7.7218495e-02
  4.3677344e+00   6.9566541e-03
  1.8042370e+00   4.5658264e-02
 -2.1710467e+00   1.3584475e-02
 -1.4775045e+00   4.0592611e-02
 -1.0529866e+00   1.2136605e-02
  1.9811735e+00   2.4547383e-02
 -3.3193035e+00   6.7765489e-02
 -2.4404449e+00   8.6159371e-03
  2.2469708e-01   3.6575083e-02
 -1.4912020e-01   2.0414952e-02
 -8.2060307e-01   2.0819632e-02
 -4.0481973e+00   7.1358986e-02
 -2.2764179e-01   5.8553610e-02
  8.4937733e-01   1.9430639e-02
 -1.0932987e+00   4.4798255e-02
 -4.4982190e+00   3.0009858e-02
  7.0510872e-02   5.6973663e-03
 -1.1046454e+00   1.5162786e-02
  6.4386001e+00   3.0342372e-02
 -3.3673716e-01   2.8039910e-02
  6.9964290e-01   3.1401649e-02
 -1.1569881e+00   3.8420890e-02
 -5.4420094e+00   9.2913406e-03
  3.8200300e+00   1.9069228e-02
  1.2787688e-01   6.7455331e-03
 -1.0817907e+00   4.7152948e-02
 -3.4689391e+00   1.0472953e-02
  6.1111909e-01   2.8013092e-01
 -2.2317083e+00   4.7950327e-02
  4.1266670e+00   5.7736028e-02
  1.2701498e+00   1.0092537e-01
  5.4068768e-01   1.4503310e-02
 -1.2519705e+00   2.1004026e-01
 -4.8946491e-01   5.0762013e-02
  1.3224336e+00   4.0839288e-02
  1.0583509e+00   5.9518017e-02
 -1.5663559e+00   6.8589844e-02
 -4.5594893e+00   9.6729375e-02
 -9.6626645e-01   1.5600957e-01
  1.6486409e+00   1.3356508e-01
  4.6111364e+00   7.9465166e-02
 -3.7206593e+00   6.8695873e-02
 -1.9721926e+00   3.2640893e-02
  7.9481214e-01   3.3164229e-03
  3.8408720e+00   7.0200808e-02
  2.9218073e+00   5.4361153e-02
  2.3746833e-01   2.6189776e-02
  2.4709475e+00   1.7510597e-01
  2.5564716e+00   6.1421484e-02
 -1.1071470e+00   3.6622357e-02
  4.5456924e+00   9.1370136e-02
  1.6713401e+00   1.1779163e-01
 -1.7192529e+00   1.9592734e-02
 -1.0569350e+00   5.7077952e-02
 -1.8465098e+00   1.2392226e-01
  3.3332131e+00   4.5357790e-02
 -8.0858809e-01   8.4012903e-02
  1.4830537e+00   1.2830244e-01
  1.8107332e+00   5.8433961e-02
 -9.9057490e-01   1.9511978e-01
  1.8976365e+00   6.9375545e-02
 -9.7848547e-01   8.6618945e-02
  2.0666158e-01   7.9209425e-02
 -1.7967936e+00   1.0453881e-01
 -4.8067561e-01   3.3683217e-01
  2.1182659e+00   6.7928410e-01
 -2.9198170e+00   4.2388690e-01
 -6.0718930e-01   1.2134594e-01
 -3.6232638e-01   1.0830851e-01
 -5.9535682e-01   4.6593878e-01
  1.6649446e+00   1.9211503e-02
 -1.4913710e+00   9.4919078e-02
  3.5858676e+00   3.9120864e-02
 -2.3445523e+00   3.7898641e-02
  4.0281205e+00   3.4100378e-01
  1.2562960e-02   6.1505115e-01
 -3.0406922e-02   4.0820763e-02
 -6.8678374e+00   4.3064963e-02
  8.1312764e-01   1.0791178e-01
 -6.1489546e-01   3.9721753e-02
  1.3424782e+00   3.5691131e-02
  2.5428095e+00   2.8720671e-01
  2.3267007e+00   2.0859461e-02
 -2.8411658e+00   4.5198005e-02
 -4.2201799e-01   2.7617732e-01
  1.7301431e+00   4.8848802e-01
  3.2393065e-01   4.0897850e-02
 -3.1973708e-01   2.9919934e-01
  6.0308647e-01   2.6521975e-01
  1.9771535e+00   8.0771141e-02
 -1.9817317e-01   1.0565773e-01
 -9.1861761e-01   2.3613524e-02
 -2.8470602e+00   2.8786457e-01
 -5.7490164e-01   4.1201625e-02
 -3.1932964e+00   5.9282104e-03
  1.2050818e+00   1.5985544e-01
 -8.7410825e-01   2.7359277e-01
  1.4806609e+00   1.5172824e-02
 -7.1609187e-01   7.0311688e-02
 -1.0399997e+00   7.8403410e-03
 -1.2507645e+00   6.4652544e-01
  4.2160755e-01   2.6244399e-01
  3.0827349e-01   3.8001131e-02
  7.2794122e-01   9.1391727e-02
  5.3952610e-01   1.3470568e-01
  1.3405681e+00   9.5354822e-03
  1.0152828e+00   3.4019294e-01
 -1.1219487e+00   2.1564649e-01
 -1.1767118e+00   8.4754333e-02
  3.0550265e-01   7.3800653e-02
  1.9501410e-01   1.7526430e-01
  4.0798107e-01   7.4396513e-02
 -1.0262676e+00   1.7865247e-01
  2.2843289e+00   3.3396205e-01
 -2.2189503e+00   2.9067749e-02
  3.8439767e+00   4.6670906e-02
  1.0687745e+00   4.0942423e-02
 -1.7881299e+00   1.3257259e-02
  5.5874455e-01   8.5023165e-02
  1.7921083e+00   1.3787255e-02
  5.0788867e-01   6.5371090e-01
 -3.3426467e-02   2.1176228e-01
 -1.0575976e+00   1.6034847e-02
  1.7645895e+00   6.1687492e-02
 -9.1878071e-02   1.8019973e-01
 -2.6393044e-01   1.3646072e-01
  1.0965616e+00   1.3236156e-01
  3.4584749e-01   1.9259550e-01
 -5.3709728e-01   3.7768689e-01
 -1.8117322e-01   2.4926215e-02
  1.2611452e+00   9.7999528e-02
  1.8519799e+00   4.5536328e-02
 -1.0863314e+00   5.8838314e-01
 -1.3582437e+00   4.0668014e-01
  1.8634561e+00   1.3882333e-01
  7.8784537e+00   2.3877444e-02
  2.6720953e-01   1.0300967e-01
  4.3923779e+00   6.0843911e-02
  6.8238926e-01   4.2326520e-03
 -1.7603090e+00   7.8203410e-02
 -2.3338518e+00   7.7674888e-02
  2.5957654e+00   1.3119732e-02
  1.4902456e-01   9.3632311e-02
  1.4982030e-01   5.5868767e-02
 -1.1454358e+00   1.5889799e-02
 -1.1983873e+00   8.0427960e-02
 -1.3274845e+00   9.3412429e-02
  2.3790307e+00   1.6187030e-01
  9.4114667e-01   4.8673586e-03
  1.9945408e-01   1.5006456e-02
  2.3839398e-01   6.8321727e-02
  3.9025981e+00   4.2866204e-02
  5.1808562e+00   1.1658289e-01
 -9.1879380e-01   2.6565251e-01
  2.2523425e+00   8.4046729e-02
  7.1120608e-01   6.6151619e-01
  1.5161380e+00   1.1719242e-01
 -2.4468253e+00   5.1149838e-02
  2.3590413e-01   5.1037186e-01
  7.6539022e-01   1.3928607e-01
  9.0528196e-01   9.3572989e-02
 -9.3605453e-01   1.2585451e-01
  4.1520181e+00   1.5114211e-02
 -4.0679884e+00   6.1988208e-02
 -1.7264079e-01   1.7651539e-01
  6.5714043e-01   2.5820878e-01
 -4.7811270e+00   6.2430918e-02
  1.4822794e+00   1.6342124e-02
 -2.2732275e+00   8.4697232e-02
  1.1578571e+00   2.4725379e-02
  1.1362520e-01   7.8080386e-01
 -1.5260571e+00   3.9099628e-01
  1.0099149e+00   5.3029280e-02
 -1.3446006e+00   1.2329183e-02
  2.1926696e+00   1.8088964e-01
  1.3115697e+00   2.8305272e-02
  4.8240665e-01   2.4105151e-01
 -2.5518623e-01   2.2809774e-02
  2.5703865e-01   2.5758803e-01
  3.9398620e-01   3.4272838e-02
  3.6336803e+00   2.5413692e-02
  2.3061302e+00   1.9157374e-01
 -4.1184235e+00   7.6950222e-02
  1.3450071e-01   2.6009259e-01
  1.3244405e+00   6.1205523e-03
 -5.1922429e-01   8.9687169e-02
 -9.7552675e-01   1.7284693e-01
  2.3417726e+00   3.4929093e-02
 -1.9398698e+00   6.5033875e-02
 -9.6609241e-01   3.6146138e-02
  1.2281089e+00   2.2571751e-01
  2.3271086e+00   1.7244415e-01
  9.3574041e-01   1.3172917e-01
 -1.8160090e+00   9.6590891e-02
  1.0336412e-02   1.2250200e-01
 -2.8376682e+00   2.4443759e-01
 -9.7355984e-02   5.1898044e-02
  1.9559443e+00   4.8942047e-01
 -2.1477251e+00   9.7685598e-02
 -4.4799166e+00   6.5664746e-02
  1.6416875e+00   5.5526556e-03
 -6.3293898e-01   1.3179134e-02
  1.8111049e-01   1.4077865e-01
  3.9054523e+00   2.5687691e-02
  3.5176739e-01   2.0804946e-01
  4.5072265e+00   1.4343972e-02
 -3.6869210e-01   1.2626108e-02
  1.9914519e+00   1.7321938e-01
  2.3908670e+00   9.2552669e-02
  1.9598430e-01   3.7026131e-01
  3.4335729e-01   3.1840056e-03
 -3.6523667e-01   6.8794347e-02
  2.5417712e+00   1.2245603e-02
  3.2687288e-02   3.3742541e-01
 -2.4500158e+00   1.7136022e-01
  2.2435260e+00   2.7555617e-02
 -2.6384859e+00   1.4643880e-02
  3.6705883e+00   8.1711426e-02
 -2.1697748e+00   7.3594004e-02
  1.0254778e-01   3.6009777e-01
  3.2900870e-01   1.8961567e-02
 -1.7516138e-01   5.3733896e-02
  6.7770821e-01   1.9776843e-01
 -1.8439680e-01   9.4703734e-02
  4.8087907e+00   1.1586303e-01
 -7.2278756e-01   2.4524356e-01
  3.1810915e+00   1.4078341e-01
  8.2113051e-01   1.6788010e-01
 -3.2643995e+00   2.0720134e-02
  1.3062615e+00   3.0549513e-02
  1.0093719e+00   1.7298353e-01
 -5.7585722e-01   8.1542447e-02
  1.6863742e-01   4.4665005e-02
  2.2349064e+00   8.2642131e-02
  2.8915734e+00   1.3885452e-01
 -1.6247207e-01   6.3559669e-01
 -4.8333725e-01   2.0138857e-01
  2.5307553e+00   1.1493742e-01
  2.6341641e+00   5.4111339e-02
  5.7499647e-01   2.1522515e-02
  8.1296325e-01   1.9176017e-02
  4.0516105e-01   7.2310469e-03
 -7.6428533e-01   5.2566491e-02
 -2.4438740e-01   1.5224461e-01
  4.5988822e-01   4.2006701e-02
  5.1901507e-01   2.0528486e-02
 -1.8886774e+00   2.3821915e-02
 -6.2273467e-01   1.1315771e-02
 -8.1333488e-01   2.5845652e-02
  3.9698334e+00   1.1149777e-02
 -1.6669770e+00   2.0482883e-02
  4.1711512e+00   5.7735190e-02
 -3.8588941e-01   4.7857642e-02
  3.9041798e+00   4.3376781e-02
 -3.9322410e+00   1.0417057e-01
  4.5336008e+00   2.9792093e-02
 -3.2682878e-01   8.5592195e-03
 -1.1067730e+00   4.1544489e-03
 -1.8091661e+00   1.2400398e-02
  9.1417593e-01   1.5384345e-02
  4.5796490e+00   3.6092564e-02
 -4.0818515e+00   3.1807445e-02
 -3.0641150e+00   1.0295139e-01
 -2.4779484e+00   1.1282770e-01
  1.2275100e+00   3.0847818e-02
 -5.5624638e+00   1.8637100e-01
 -2.7668793e+00   5.1389333e-02
 -3.3708661e+00   3.3276275e-02
  1.3928845e+00   8.7518394e-03
 -3.9445734e-01   3.3197146e-02
 -1.1453393e+00   2.8352004e-02
 -4.5005531e+00   1.1311891e-02
 -3.1923318e+00   3.9786778e-02
 -4.2502722e-01   2.9767426e-02
 -1.4496671e+00   2.2892468e-02
  1.7553273e+00   1.6451813e-02
  7.3286986e-01   4.6817496e-02
  2.2245617e-01   6.4397663e-02
 -4.7195223e-01   1.3958604e-02
  1.9785129e+00   2.1549903e-02
  4.9543724e+00   6.0366750e-02
  5.4313030e+00   2.6543966e-02
  1.7214078e-02   8.3347997e-03
  1.5152351e+00   4.5489441e-03
  1.4667070e+00   5.6990448e-02
  1.6240745e+00   9.6234074e-03
 -3.6248913e+00   3.1061180e-02
  1.3597441e+00   3.1998225e-02
  7.7649933e-01   3.4354366e-02
 -2.1724901e+00   7.6301560e-02
  1.5946190e+00   1.3926078e-01
 -1.7019020e+00   1.1279275e-02
  3.1214442e+00   8.5435109e-03
 -1.9367237e-02   4.1583095e-02
  1.5315822e+00   2.2868877e-02
 -3.8521626e+00   1.3297535e-02
  2.6435676e+00   1.7799459e-02
 -3.1600950e+00   5.2022945e-02
 -1.4395332e+00   8.2989208e-02
 -8.0372372e+00   1.7754938e-01
 -3.3486390e-01   3.1574052e-02
 -4.7235932e+00   2.7972206e-02
  1.1804312e-01   7.8425566e-03
  2.6677966e+00   4.1989285e-02
 -5.9865136e+00   1.6822621e-02
 -9.0057254e-01   7.7024275e-03
 -4.9549943e-01   1.3053324e-02
 -9.5327705e-01   4.5331556e-02
 -2.5016725e-01   4.0147666e-02
  2.9294968e+00   1.6411943e-02
 -7.3972231e-01   7.1963319e-03
 -2.1238923e+00   1.2110647e-02
 -8.2879329e-01   1.0496141e-02
  7.1973950e-01   4.4423849e-03
 -5.3920627e-01   2.0380957e-02
 -7.8957546e-01   1.7730426e-02
 -4.5099762e-01   2.7330879e-02
  8.8028544e-01   5.3568515e-03
 -4.1491423e+00   2.9847590e-02
 -4.6600304e-03   1.4412979e-03
  3.1942244e+00   5.3745825e-02
  8.4154688e-02   2.3422560e-02
 -1.1958774e+00   9.6296268e-03
  6.7591434e+00   8.6522952e-02
  1.6461335e+00   1.1298538e-02
  2.0329194e+00   1.0327150e-02
 -1.3569192e+00   5.5827118e-02
 -1.5989272e-01   2.7552510e-02
 -6.8827468e-01   5.1366165e-03
 -5.9285908e+00   3.7641194e-02
  2.0830164e+00   1.9407839e-02
 -1.0737190e+00   1.0773684e-02
 -2.0766802e+00   1.5831776e-02
  2.3758130e+00   1.3311490e-02
  2.6125965e+00   2.4381015e-02
  2.6048999e+00   2.2941016e-02
  1.5371280e+00   5.0765872e-03
  1.9388829e-01   2.4149831e-02
  2.4324675e+00   1.1270522e-02
 -2.9855156e+00   5.3549171e-03
  1.4477445e-01   4.8927311e-03
 -3.9919093e+00   4.1948785e-03
  2.8391044e+00   2.1739317e-02
 -2.7190175e+00   2.2765120e-02
  2.0301249e+00   3.3046797e-02
  9.4305015e-01   1.6903317e-02
  1.6570537e+00   7.8590410e-03
  4.4177275e+00   5.0604448e-02
  1.1282790e+00   5.1846106e-02
  2.2033939e+00   1.5787557e-02
 -4.0689588e+00   3.4826819e-02
  2.4342391e+00   5.7423227e-02
  1.7616155e+00   8.8739395e-03
  9.3737322e-01   3.3979803e-02
 -3.3029413e+00   3.6830902e-02
 -3.8569407e+00   8.0489935e-03
  7.3372924e-01   9.4727084e-02
 -5.9889066e-01   5.5642691e-03
 -4.8464158e-01   3.4961153e-02
  3.6889920e+00   3.2298427e-02
  1.7179637e+00   3.8239915e-02
 -2.2205980e+00   4.9859632e-02
 -3.7766650e+00   4.6537340e-02
 -4.4818807e-01   7.6950721e-02
  2.8957968e+00   2.9842027e-02
  9.3976891e-01   1.0101478e-01
 -2.2025672e-01   9.3549691e-02
  2.3255286e+00   4.5545646e-03
  2.2736540e+00   1.5695358e-02
  5.7282829e+00   6.7268528e-02
 -1.4419622e-02   7.6536581e-02
 -1.1406024e+00   2.7262427e-02
 -8.5678452e-01   7.9370439e-02
  1.6225185e+00   5.2538019e-02
  2.8002088e+00   8.1078716e-02
  2.1969669e+00   6.4718351e-02
  8.7703878e-01   2.3747178e-02
 -3.4778717e-01   4.1362159e-02
  3.2631481e-01   2.0755729e-02
  3.6466248e+00   7.8408629e-02
  1.1953815e+00   9.6594118e-02
 -1.8885639e+00   1.7590353e-02
  2.1287086e+00   1.8938586e-02
 -2.8017771e+00   5.8013976e-02
 -6.5337580e-01   2.6871938e-01
 -2.2379994e+00   2.7830547e-02
 -5.2036190e+00   3.0055791e-02
 -1.3441037e-01   2.3237519e-01
  7.9661447e-01   4.7857460e-01
 -1.3315083e-01   3.4413117e-01
  1.2241926e+00   3.0391222e-01
  1.6255297e-01   5.7630014e-02
  4.2716236e+00   2.9797493e-02
 -1.9080859e+00   6.4554518e-01
  4.1511402e-01   1.0748519e-01
 -1.9213855e+00   5.4024499e-02
  3.7803009e+00   4.0020671e-02
 -1.4056667e+00   5.4396081e-01
  2.3566099e-01   6.8363179e-03
  8.2307303e-01   3.8266893e-02
  7.2448157e-02   2.1288209e-02
 -8.8129687e-01   3.1191039e-01
 -2.3668065e+00   5.2869756e-02
  2.0700095e+00   2.7109551e-01
  1.5168365e+00   1.1346876e-02
 -2.4597697e+00   8.3610371e-02
  9.7899157e-01   5.3342521e-01
  2.5358602e-01   1.7226398e-02
  8.9341837e-01   1.0213815e-01
  1.4126450e+00   1.8911727e-02
 -2.1779389e+00   5.1483549e-02
  5.3071529e-02   4.3950689e-01
  2.7897093e-01   1.5222110e-01
 -1.8606948e+00   1.2266307e-01
 -9.2455751e-01   6.4669296e-02
 -3.5438590e+00   7.6899536e-02
 -1.4487702e+00   6.6816494e-02
  3.6821884e-01   4.4509074e-01
  4.7275505e+00   1.6813938e-01
  1.2652249e+00   1.9388471e-02
  1.7247559e+00   1.5234835e-01
 -7.1061611e-01   1.4400670e-01
 -3.1150136e+00   1.2642172e-02
  1.2730007e+00   1.8882784e-01
  6.9182418e-02   2.6928243e-01
 -1.0151044e+00   6.6590853e-02
 -9.9852180e-01   9.9438429e-03
 -2.8044963e+00   6.4908378e-02
 -1.0173303e+00   2.4578927e-02
 -1.6887672e-01   2.1070944e-01
 -2.2428334e+00   1.0298786e-01
 -1.1398619e+00   1.1251456e-02
  1.8038702e+00   1.2774338e-01
 -2.8741562e+00   8.6914420e-02
 -1.0804186e-02   8.0645092e-02
 -3.3024569e+00   7.3313527e-02
 -2.1277399e+00   1.5424778e-03
  3.7907376e+00   3.4669322e-01
  3.6683151e-01   6.4809746e-01
 -1.3392556e+00   2.1506375e-02
 -5.2193987e-01   2.9878449e-01
 -2.8998390e-01   3.8757551e-02
  2.4728477e+00   3.4153424e-02
  6.7689377e-01   1.1532431e-02
  1.3611546e+00   1.2523693e-02
 -1.4099860e+00   7.7807263e-02
 -5.4660372e-02   8.3587961e-03
 -1.0311563e+00   1.5870309e-01
 -1.3267281e+00   3.1859413e-02
 -5.1290619e-01   1.3589741e-02
 -8.1009245e-01   2.3981807e-01
 -1.6793795e+00   7.1416818e-02
 -2.8797102e-01   4.7007591e-02
  1.5965476e+00   3.3852604e-01
  1.3671699e+00   2.6497680e-01
 -7.1303540e-01   3.2029666e-02
  1.7554421e+00   1.7763604e-01
  5.0500106e-02   7.5936973e-02
 -2.4458776e+00   6.5996267e-02
  1.1858344e+00   1.2310120e-01
  1.0349684e+00   1.2049602e-02
  7.6177257e-01   1.6748130e-01
 -1.0521171e+00   8.3012935e-03
  1.9838451e+00   2.4916973e-02
  6.0875654e-01   1.4939106e-01
  4.7283192e+00   2.7288440e-01
 -1.1818880e+00   1.0779362e-01
 -1.4820743e+00   3.3165537e-02
  1.5570930e+00   1.7573726e-01
  3.0435038e+00   2.7252384e-02
 -1.7018715e+00   2.1934604e-02
  2.1744895e-01   1.0596829e-01
 -7.1377802e-01   1.8761184e-02
  1.1210437e+00   2.9410889e-02
  2.4523917e-01   4.1498053e-01
  2.9158959e+00   4.5194488e-02
  1.2647115e+00   6.1475724e-02
 -8.4144369e-02   3.1129038e-01
 -3.3513689e-01   6.5611683e-02
  3.7453812e-01   2.3089498e-01
 -2.5766208e+00   1.0352579e-02
 -3.9151254e+00   9.7961143e-02
  3.7604792e+00   2.8596135e-02
  6.4221449e+00   4.9309388e-02
  2.5052874e+00   2.1507537e-02
 -3.6837643e-01   1.4399474e-02
 -6.2298470e+00   2.3039602e-01
  2.7268467e+00   2.9881552e-01
 -1.1026537e+00   4.7574207e-01
 -1.8910538e+00   9.0785839e-02
  3.7756425e-01   1.2878262e-01
  1.6437435e+00   1.2076383e-01
  3.1675336e-01   1.5125510e-02
 -8.7340361e-01   2.3421037e-03
 -8.1205541e-01   2.0084932e-01
  4.0182428e+00   4.7201749e-02
 -4.6737844e-01   1.6952077e-01
  3.6458593e-02   6.6689737e-02
  3.5775483e+00   7.5667642e-02
  1.8656343e+00   2.2214284e-02
 -4.2030301e+00   7.9977296e-02
  1.4644265e+00   1.7216107e-01
  2.7935426e+00   6.7442898e-03
  1.4636149e+00   2.0642143e-01
  1.8788928e+00   2.0142501e-02
  1.8967109e+00   1.8959634e-02
 -3.0566657e+00   8.5550183e-03
  4.1479036e-01   1.5494286e-01
  3.6735706e+00   1.3250279e-01
 -1.0537546e+00   3.6684405e-02
  2.0735450e+00   4.7521841e-02
  1.3163295e+00   2.4910055e-02
 -9.8735344e-01   3.6530644e-02
  6.3617367e-01   2.1398533e-02
  4.9079975e-01   1.8913150e-01
 -1.6464348e+00   5.6554887e-02
 -2.2712574e+00   1.4398095e-01
 -5.3555489e-01   1.1603666e-02
 -8.1222141e-01   1.2801596e-02
  1.4049221e+00   1.7938332e-01
 -3.7935451e-01   2.8529093e-02
 -1.9475765e+00   2.4401138e-02
  4.9655095e-01   2.1633866e-01
 -2.9589030e-01   8.8099733e-02
 -1.6697472e-01   1.7864659e-01
 -1.1534412e-01   1.2473144e-01
  1.9513184e+00   9.8804101e-02
  2.6096134e+00   1.1072903e-02
 -2.6614609e+00   2.7519785e-02
 -1.4461370e+00   3.4057215e-02
 -1.3953758e+00   7.0579596e-02
 -3.1039345e+00   9.1764428e-02
 -1.1824434e+00   6.6764526e-02
 -7.2619066e-02   1.3133836e-02
 -3.9544053e+00   4.1480187e-02
  2.7871170e+00   3.8215630e-02
  3.4762511e+00   2.1135423e-02
  2.3387176e-01   1.9358400e-02
 -8.9877445e-01   5.3927969e-02
  2.4507291e+00   3.1703193e-02
  1.3392528e+00   1.8000575e-02
  4.9279416e-01   1.0892845e-01
  3.1735635e-01   1.0628505e-01
  1.1119051e-01   1.3188781e-01
 -4.0709538e+00   4.4161335e-02
  2.0508811e+00   4.0215146e-02
 -7.6333508e-02   4.7221377e-02
  6.8904418e-01   4.2884879e-02
  1.3338628e+00   2.0024021e-01
  2.5373878e+00   1.3268055e-01
  1.1478367e+00   1.1051085e-01
 -2.9873246e-01   3.2207057e-01
  1.8796186e+00   1.4869454e-02
 -5.6958836e-01   2.4468023e-01
  4.8587208e+00   5.1088672e-02
  6.0460186e-01   1.1528713e-01
  1.8789152e+00   8.9340672e-02
  4.7515631e-01   2.0176621e-02
 -1.9780596e+00   6.2158175e-02
  4.2814198e+00   1.1726982e-02
  4.6352935e+00   1.6180965e-01
  2.5298898e+00   7.3927995e-03
  2.0504251e+00   1.5259249e-02
  1.2876062e-01   1.1620342e-01
  1.0007051e+00   5.6348659e-02
  2.6652709e-01   2.7271762e-01
  4.2646341e+00   2.6326429e-02
  3.5220778e+00   5.2290116e-02
 -1.9597476e+00   2.5690975e-02
 -8.2015045e-02   3.2494818e-03
 -2.8721538e+00   4.9849558e-03
 -1.6601613e-01   2.3039447e-02
  1.4374089e+00   2.6770569e-02
 -2.1768477e+00   8.4944427e-02
  1.3938690e+00   1.5677474e-02
 -2.8558013e-01   6.2813932e-01
 -1.6496712e+00   3.4290362e-02
  1.5694866e-01   6.4962097e-02
 -5.7095873e-01   3.3528066e-01
  1.1317390e+00   4.0958902e-01
 -1.3445264e+00   7.6821722e-02
  3.8374141e-01   6.2635234e-03
 -3.5236318e+00   9.9322855e-02
  4.5328736e+00   4.0233865e-02
 -2.9255471e+00   2.5958419e-01
  4.8219228e+00   8.7002121e-02
 -2.1807523e+00   1.8080130e-01
  2.0879428e+00   1.0571735e-02
  2.1692989e-02   1.0375149e-01
 -2.4199944e+00   9.1234958e-03
 -3.3573341e-01   9.9731311e-02
  3.3999822e-01   1.5343386e-01
 -2.6183565e+00   3.6434823e-01
 -3.9417702e-01   6.0159203e-02
  2.9967597e+00   1.3469836e-01
 -3.1311202e-01   9.7515412e-02
  7.7169770e-01   1.0156149e-01
  3.1015975e+00   4.6056241e-02
 -1.4484488e+00   9.8809823e-03
  3.5087113e+00   1.3326453e-02
  3.5234791e-01   1.1171980e-01
 -4.2530113e-01   5.9264116e-02
  2.8730369e-01   3.2710990e-01
 -1.1076491e-01   6.1807971e-02
  1.6269155e-01   1.8416042e-02
  1.2846596e+00   1.1437843e-01
 -2.3308545e-01   8.9913778e-02
 -1.0369394e+00   1.0660347e-01
 -3.3740547e+00   4.5339074e-02
 -1.4349991e+00   2.1742845e-01
 -5.0896940e+00   7.6780923e-02
 -5.2261508e-01   4.9198246e-01
  1.6436863e+00   1.1607229e-02
 -9.6000683e-01   1.7780367e-01
 -6.8307537e-01   1.0231566e-01
 -8.0835700e-01   4.1458365e-02
 -4.0407416e-01   1.8479683e-01
  1.0135609e+00   1.4355540e-01
  4.6107292e+00   3.9612640e-02
 -4.3386350e+00   9.9777877e-02
 -1.0286672e+00   5.3985119e-03
  1.0757315e+00   1.7283110e-01
  1.2212248e+00   9.4682062e-03
 -1.0549022e+00   2.5075766e-01
  1.3360361e+00   6.0070608e-02
 -1.5611931e+00   1.3418189e-01
  4.0359445e+00   6.1399929e-02
  9.3680464e-02   7.0674624e-03
  1.1219777e+00   2.3131380e-02
  7.3241693e-01   1.6373062e-01
  3.9900643e-01   4.1594874e-02
 -1.4665635e-01   1.4859562e-01
  1.2213373e+00   2.5617465e-02
  5.7530475e-01   9.7320816e-03
 -1.4545550e+00   1.5434362e-01
  2.0668452e+00   7.2960508e-01