  2.0857706e+00   4.4470605e-02
 -5.8755326e-01   1.6851963e-01
  2.2899935e+00   1.6958421e-01
  7.5680427e-02   2.3411791e-01
 -3.4565234e+00   5.1473986e-02
  3.9993995e-01   5.5465382e-02
  4.3950887e+00   3.8589738e-02
  4.6795893e+00   4.8219842e-01
 -8.0437160e-01   9.4882064e-02
  1.8396994e+00   1.0255828e-01
  2.2333057e+00   3.3112994e-01
  9.6433377e-01   4.1779079e-02
  5.0238299e-01   1.7195910e-01
 -3.5280835e-02   3.2682266e-02
  3.2632959e+00   3.6951554e-01
 -1.5131857e+00   3.6687985e-01
  3.1557572e+00   6.9855317e-02
  8.0304003e+00   1.1528410e-01
  1.9788477e+00   2.6706830e-01
 -3.2855291e+00   1.2300459e+00
 -6.1024006e-02   5.9625540e-02
 -1.5678248e+00   3.6751486e-02
  2.2137349e+00   2.5232193e-01
  1.7679331e-01   3.3683263e-02
  3.0104229e+00   9.6658252e-02
  2.0094225e+00   1.8419169e-02
 -3.3398747e-01   1.1714362e-01
 -3.4748940e+00   7.5896198e-01
  2.4756950e-01   8.5590273e-02
  5.8798760e-01   7.8063570e-02
 -3.1424866e+00   7.4167992e-03
  3.1359742e+00   5.6227352e-02
 -3.0246356e-01   2.0808766e-02
  1.4438249e+00   2.2310854e-01
 -5.5672827e+00   2.2120689e-01
 -3.2469821e-01   1.6630989e-01
 -4.2845136e-01   4.2847925e-01
  1.9864315e-01   4.8139066e-02
 -2.1107697e+00   2.9071888e-02
  4.2404380e+00   3.9516464e-02
 -4.2989130e+00   9.4037220e-02
  8.0720675e-01   2.9695474e-02
  3.5333729e-01   1.3535048e-01
 -1.6630055e+00   1.1032444e-01
  9.7149074e-01   1.5904236e-01
 -3.3232672e+00   6.3713866e-01
 -2.0339139e+00   1.7606087e-01
  1.0212553e-01   2.4488214e-01
 -9.0902960e-01   2.1706034e-01
 -1.5292268e+00   1.1799953e-01
 -1.1375029e+00   1.8511603e-02
  6.4871116e+00   3.0698057e-02
  4.0594106e+00   4.7201727e-02
 -2.7069845e+00   3.0092629e-02
 -3.4653792e+00   6.7759655e-02
  7.2919917e-01   6.5399595e-02
  6.5398258e-01   5.9312060e-02
  1.4227973e+00   6.4191863e-02
  1.0550598e+00   3.4703124e-02
  5.0043881e-01   4.9670073e-01
 -1.2292229e+00   3.8922418e-02
 -5.2042665e+00   2.3154269e-01
 -1.7057118e+00   8.4199801e-02
 -1.0962155e+00   4.3324044e-01
 -2.0418179e+00   5.1393057e-03
 -6.0825354e-01   1.1681055e-01
  1.3321621e+00   5.1081635e-02
 -3.6098199e+00   2.7590427e-01
 -1.3447930e+00   1.1923746e-01
 -6.7632866e-01   8.1705585e-02
  2.3253386e+00   9.3188904e-02
 -1.8885519e-01   9.7840898e-02
  1.0111130e+00   5.4270094e-03
  4.9254775e-01   1.2095153e-02
  2.8120079e+00   4.0525021e-03
  2.0451035e+00   9.9822525e-03
  4.1125908e+00   1.8793983e-02
 -9.7940326e-01   3.7751198e-02
 -5.7350546e-01   1.1342010e-02
  9.1858935e-01   3.7255403e-02
 -1.1094117e+00   1.4764819e-02
  1.1346966e+00   2.7062654e-02
  1.2030014e+00   1.2697043e-02
  1.7530875e+00   5.7433527e-03
  5.0706172e+00   3.4067292e-02
  1.0217513e+00   1.9217426e-02
 -1.3828292e+00   1.3602446e-02
 -3.6396389e+00   1.8153585e-02
 -3.2707376e+00   4.2188060e-02
 -9.8726831e-02   1.4832949e-02
 -2.4063551e+00   2.0914145e-02
 -3.5020905e+00   3.7347902e-02
 -1.2355657e+00   7.5442838e-03
 -1.7763542e-01   5.1227964e-02
 -7.6044559e-01   1.2386429e-02
  4.5126700e+00   3.6351301e-02
  1.5338421e+00   1.3812396e-02
  2.2646408e+00   3.8980454e-02
 -2.7000153e+00   5.1230945e-02
 -8.2020837e-01   9.9989688e-03
 -2.8062013e-01   1.8155413e-02
 -2.1882135e-01   5.5585126e-03
 -5.1706129e-01   1.6278369e-02
 -4.0406556e+00   1.4251336e-02
  1.3360838e+00   1.0255203e-02
 -4.2968222e-01   1.4943541e-02
  4.0794215e-01   4.9778689e-02
 -1.2654260e+00   6.0843583e-03
  2.5312874e+00   1.1311141e-02
 -2.9110417e+00   1.6017666e-01
  3.7599208e+00   7.9998523e-02
  4.4752469e+00   1.8381138e-01
 -4.9161730e+00   1.7850347e-01
 -1.0988030e+00   1.1988163e-01
  2.9220321e+00   2.2860458e-01
  5.3345978e-01   3.4826568e-01
  1.7203447e+00   1.6939867e-01
  2.1611139e-01   3.0412638e-01
 -3.3128923e-01   1.1562986e-01
 -1.0506408e+00   1.4462124e-02
  1.4858890e+00   4.8496291e-02
 -4.7378736e+00   1.1761387e-01
  1.4370052e+00   1.9373716e-01
  2.8874925e-01   8.4988557e-02
  6.3088149e-02   4.3082111e-02
  9.0293318e-01   4.0719795e-01
  6.4737062e+00   1.3758220e-01
 -2.6194770e+00   1.7470963e-02
  3.3867052e+00   7.5599737e-02
 -5.2190238e-01   4.5954227e-01
  2.8978906e+00   4.0693168e-02
  1.3576466e+00   1.9639048e-01
 -2.5825574e+00   4.1593871e-01
 -2.2756130e-01   2.2803109e-02
  7.0241156e+00   1.6859446e-01
 -5.3239888e-01   1.6112301e-02
  1.8401195e+00   1.4506534e-01
  3.1413057e-01   2.0362294e-01
  6.3684626e+00   2.4503464e-02
 -3.9596965e+00   3.0276471e-01
 -1.7829517e+00   4.7566529e-02
  1.5760592e+00   6.3497543e-01
  1.2768515e+00   3.0034181e-02
 -1.3664421e-01   2.0475067e-02
  4.6979127e+00   1.0354361e-01
  7.4990308e-01   5.9931893e-02
  3.0971849e+00   4.3035123e-02
 -3.0826490e+00   6.2694415e-02
 -5.3850764e-01   4.2021047e-02
 -2.0058599e+00   9.8473661e-02
 -1.2677988e+00   3.5207216e-02
  2.7655499e+00   3.9842695e-02
  3.9428926e+00   1.4987312e-01
  2.2621119e-01   6.5768190e-02
 -7.7737838e-01   8.1281073e-02
  6.1268342e-01   2.1189809e-01
  1.9656738e+00   3.1074107e-02
  1.9181381e+00   4.4086134e-01
  8.5820341e-01   6.6674739e-01
 -2.7091708e+00   1.6313739e-02
  4.0132694e+00   1.7972294e-02
  1.6763848e+00   8.2221366e-02
 -2.4904004e-01   9.3961664e-02
  1.4099673e+00   1.3390434e-01
  2.5495875e-01   3.6371727e-02
  1.6773163e+00   3.0873565e-02
 -1.9122097e-01   1.3255621e-01
  4.1556668e+00   3.1499948e-02
 -2.3256152e+00   4.8582174e-02
  1.9151431e+00   1.1252514e-01
 -4.4574447e+00   1.8604535e-01
  8.7756312e-01   7.1020059e-02
 -4.8252490e-01   6.1645322e-02
  8.4570259e-01   1.4303705e-01
  1.2463132e-01   3.4128284e-01
  9.7848958e-01   1.1324874e-01
 -2.0583775e+00   5.0664891e-02
 -3.5297780e+00   3.8612673e-01
 -5.8637583e-01   1.7609072e-01
  6.8083630e+00   8.2681902e-02
 -2.6781723e+00   5.2583784e-02
  3.1394701e+00   7.4680813e-02
 -1.3133588e+00   1.2795406e-02
 -1.6420792e-01   3.1171320e-02
 -5.4662853e-01   1.0122916e-01
  4.4591883e-01   7.9739682e-02
  1.2807487e-01   3.1078691e-02
 -7.6199369e+00   1.3962971e-01
  7.4839926e-01   1.6553180e-01
 -4.0990548e+00   2.3579077e-01
 -1.2890873e+00   3.7810296e-02
 -1.0388223e+00   2.3391988e-02
  5.8693975e-01   5.5470299e-02
  8.0703080e-01   8.3158826e-03
  2.7590196e+00   3.1901821e-01
  6.5814003e-02   3.9015092e-02
  9.6802607e-02   3.3276173e-01
  7.6094961e-01   3.5143990e-02
 -2.0104644e+00   8.2435437e-02
  6.8781199e+00   2.6246694e-01
  1.9337509e+00   1.0137634e-01
  1.2471048e+00   1.8667068e-02
  2.2595656e+00   9.9823289e-02
  1.6431991e+00   2.1594532e-02
  2.7788501e+00   2.7469311e-02
 -2.3058884e+00   4.7255222e-02
  9.0821427e-01   8.9737915e-02
  1.6728963e+00   3.5374887e-02
  1.6533701e-01   4.4060597e-01
  1.3610911e-01   7.4089602e-02
 -2.7592885e+00   9.0667687e-02
 -4.5180783e-01   2.8251579e-01
 -1.8356405e-01   1.4793755e-01
 -2.0424353e-01   1.4268699e-01
  4.0694609e-01   3.1415328e-02
  2.4863076e+00   3.7564576e-02
  2.0797961e+00   4.6173826e-02
  6.6690512e-02   4.0943787e-02
 -6.8188089e-01   3.2378325e-01
  2.2997870e+00   4.4388201e-02
 -8.4596515e-01   5.3449649e-02
  4.6274943e+00   3.0020714e-02
  1.2018543e-01   4.1584584e-01
 -1.1188748e+00   1.7857994e-01
  1.1827726e+00   1.4587720e-01
  5.2634630e+00   1.7645127e-01
 -1.1958400e+00   1.3912097e-01
 -2.5860406e-02   2.2713107e-01
 -3.7305863e+00   3.1046996e-02
 -6.8221137e-02   3.0272585e-01
 -2.9676270e+00   6.0994972e-02
 -1.8834773e+00   6.6872343e-02
  8.1884617e-01   2.9227537e-01
 -8.7813115e-01   2.4301235e-01
 -3.0122288e-02   2.0317823e-01
  7.7957278e-01   3.4053251e-02
  2.0009358e+00   1.1596857e-01
  4.1776724e+00   2.7681538e-01
 -1.5310057e+00   1.3366477e-01
 -1.9086804e+00   2.0185418e-02
  1.1159518e+00   1.1860010e-01
  2.8344228e+00   3.8411582e-01
  5.0271219e-01   5.6405138e-02
  4.2619081e+00   9.1727681e-02
 -2.6476569e+00   1.6508205e-01
  8.4565485e-01   1.7879416e-01
  6.1794561e-01   2.7609736e-01
  9.3014407e-01   4.6053207e-01
  1.6816088e+00   6.9085648e-03
  1.2881536e+00   4.3577593e-02
  1.3280448e+00   1.3123566e-02
  7.2399104e-01   5.0109938e-02
 -2.5306747e+00   2.2305245e-02
 -5.0699526e-01   2.5052648e-02
  1.0569218e+00   1.6810473e-02
  2.7641871e+00   5.6515139e-02
 -1.5531594e+00   4.6097085e-02
 -8.6658925e-01   8.4259085e-02
  3.4453235e+00   2.0312004e-02
  1.3399310e+00   9.5655128e-02
 -2.7756848e+00   2.3969091e-02
  5.3192222e-01   4.6947975e-02
 -2.7230141e-01   4.3695003e-02
 -8.2442576e-01   1.0202114e-02
  7.9939914e-01   2.3507539e-03
 -9.7060528e+00   6.0010031e-02
 -8.4251538e-03   5.3306393e-02
  5.6197262e-01   3.1896196e-02
 -3.5178788e+00   1.3536552e-01
 -3.7951555e+00   1.3555122e-02
  2.9651179e+00   9.8875221e-03
  1.6360481e-01   5.1834140e-02
  6.8958850e+00   1.0398573e-02
 -8.3905065e-01   1.3756914e-01
  9.3380615e-02   4.8443463e-02
  5.1207676e+00   6.2873296e-02
  7.9671991e-01   5.7013329e-02
  1.1779821e+00   6.9633186e-02
  6.2105244e-01   9.4965562e-02
 -5.5445638e+00   3.9549112e-02
  4.3791494e+00   6.3375451e-02
  2.3191054e-01   1.3708988e-02
 -1.0556718e+00   4.1142710e-02
 -1.2716714e-01   7.0203811e-02
 -3.9281197e+00   2.5590116e-02
 -1.0543135e-01   2.7226219e-02
  1.9516695e+00   2.2592137e-02
 -3.3427682e+00   3.1014243e-02
  4.4331851e+00   3.3028528e-02
  2.2888684e+00   6.6668275e-03
 -3.9583039e+00   6.3852839e-02
  2.9690158e+00   3.3581506e-02
 -3.0543358e+00   8.0475152e-02
 -7.0896488e-01   1.2057476e-01
  1.9504001e+00   5.4969057e-02
  7.6539004e-01   1.9106800e-02
  1.0550269e+00   5.9597897e-03
 -2.0774671e-01   8.6224183e-02
  2.9941347e+00   1.2047514e-01
  1.9602578e+00   9.2504332e-03
  4.7243705e-01   4.2640831e-02
  4.8050981e+00   1.1863176e-02
  3.7404459e+00   3.5434291e-02
 -1.7010535e+00   3.1979144e-02
 -1.6330771e+00   5.6885216e-02
 -1.0830274e+00   1.4952539e-02
  1.6989131e+00   5.3858541e-02
 -3.3054242e+00   7.0002362e-02
 -2.1935730e+00   3.7983917e-02
 -7.6156054e-03   4.3629456e-02
  1.5709039e-02   2.4138948e-02
 -5.3940225e-01   3.3093024e-02
 -4.3920259e+00   6.6452093e-02
 -8.6956215e-01   4.7106311e-02
  1.3728161e+00   4.3346331e-02
 -1.1667002e+00   5.2852523e-02
 -5.1838727e+00   3.7017260e-02
  2.5082043e-01   8.9710923e-03
 -1.1450460e+00   1.7854335e-02
  5.9726167e+00   6.2123340e-02
 -7.1349818e-01   4.3107424e-02
  1.1341152e+00   4.6753660e-02
 -9.2091328e-01   6.2769040e-02
 -4.7236147e+00   1.5833838e-02
  3.5140276e+00   2.2173755e-02
  1.7974606e-01   5.3011761e-03
  1.1890244e-01   3.3659942e-02
 -3.9761367e+00   1.6068125e-02
  9.5811635e-01   1.5897299e-01
 -1.2660480e+00   3.8041320e-02
  1.6570488e+00   5.6257550e-02
 -1.2347408e-01   1.8508339e-01
  5.9480220e-01   9.9984713e-02
  5.4611284e-01   2.0623133e-01
  1.7270269e+00   9.6035495e-02
  2.2824848e+00   5.2254476e-02
  2.1275315e+00   7.1610764e-02
 -2.2345212e+00   4.3598112e-02
 -6.9083238e+00   1.3422625e-01
 -8.8146389e-01   9.0169020e-02
  2.6672966e+00   3.6121956e-01
  5.4331775e+00   1.8015362e-01
 -4.0633883e+00   7.5784028e-02
 -3.3562746e+00   6.3124709e-02
  9.0298182e-01   9.1286590e-03
  2.9332557e+00   5.8782116e-02
  2.4887671e+00   7.8705050e-02
  1.1439841e+00   2.8226176e-02
  4.4415960e-01   5.9024662e-02
  1.4686990e+00   9.5519878e-02
 -3.4847143e+00   7.4928768e-02
  7.8355422e+00   9.8199688e-02
  1.5974557e+00   1.1490939e-01
 -3.3310478e+00   5.3944025e-02
  1.2520770e+00   1.1725573e-01
 -3.8328686e-01   4.6041157e-02
  3.6374967e+00   1.0110104e-01
  1.7155366e-02   6.2714882e-02
 -3.2360974e-01   1.7794316e-01
  4.7434821e+00   1.2355542e-01
 -1.7266598e+00   1.0429627e-01
  2.5505862e+00   1.4666449e-01
  2.3167918e+00   6.8086423e-02
  1.2970262e+00   1.2116558e-01
 -7.9890287e-01   1.2650590e-01
  7.4636358e-01   2.4245685e-01
 -1.7286483e+00   5.7409304e-01
 -1.3911352e+00   5.2623963e-01
  1.0075946e+00   6.6813666e-01
 -1.0797492e+00   4.5489896e-02
 -3.7885337e+00   2.0656739e-01
  1.2965376e+00   4.6618551e-02
  9.7476411e-01   6.1186150e-02
  2.8515329e+00   4.7846198e-02
 -1.4854666e+00   4.7000416e-02
  2.0893936e+00   1.6119836e-01
  2.5403125e+00   1.8411019e-01
 -1.2345873e+00   7.4680299e-02
 -6.6918063e+00   4.8012935e-02
  3.4824568e-01   5.9227753e-02
 -8.1279641e-01   7.6515198e-02
  2.6948124e-01   8.9594826e-02
 -1.6725565e-01   2.0767054e-01
  2.8887441e+00   2.4231218e-02
 -1.3588815e+00   3.4442581e-02
  1.4865183e+00   1.7859520e-01
 -1.6815226e+00   7.5841099e-01
 -3.5188124e-01   2.5364073e-02
  1.6123075e+00   3.2095301e-01
 -7.9364085e-01   1.2580092e-01
  1.7507837e+00   1.2324929e-01
  2.6419134e+00   2.4880858e-01
 -9.3529880e-01   5.7352882e-02
 -3.3226998e+00   3.0914831e-01
 -1.0693332e+00   5.3121127e-02
 -3.3240442e+00   3.4857959e-02
  3.4588695e+00   1.4680591e-01
 -3.4903629e+00   3.9052373e-01
  1.5121063e+00   1.5249704e-02
 -4.3900948e+00   1.1985095e-01
 -1.1119387e+00   1.5516009e-02
  1.7074248e+00   2.9271924e-01
  3.2097423e+00   6.3770008e-01
  1.2991824e+00   7.7943482e-02
  8.2901180e-01   1.7878234e-01
  5.8783013e-01   3.8755070e-02
  1.1406733e+00   1.8971866e-02
 -1.9948069e+00   3.1545615e-01
 -2.8780026e+00   4.2980337e-01
 -1.4742569e-02   3.4058027e-02
  3.7481591e-01   1.4504431e-01
  8.1362504e-01   8.4505163e-02
 -3.4339674e+00   1.7475587e-01
  3.4074244e+00   2.5077716e-01
  1.5995356e-01   5.3803366e-01
 -2.5127957e+00   9.4904127e-03
  3.9897244e+00   4.7639161e-02
  2.4017251e+00   1.2616576e-02
 -1.0110354e+00   2.2643596e-02
  2.2868454e+00   2.0037673e-01
  1.5797069e+00   1.1833703e-02
  2.7438347e+00   8.8053256e-01
  8.6185414e-01   2.3882562e-01
 -1.2367930e+00   2.5463948e-02
  1.3183360e+00   7.6270796e-02
 -1.0521665e+00   1.2108261e-01
  2.4239062e-01   7.7535830e-02
 -1.0970253e-01   9.2229128e-02
 -1.8043165e+00   1.8836220e-01
 -3.1310554e+00   1.0328151e-01
  1.1926520e+00   5.9669390e-02
  4.3048975e-01   2.9648194e-01
  3.3494010e+00   5.1729884e-02
  1.1338290e+00   4.2675537e-01
  1.3589088e+00   2.7755845e-01
 -6.5164340e-01   4.5816801e-02
  6.7505088e+00   3.7339192e-02
 -8.2008041e-02   5.7229917e-02
  4.7077370e+00   5.5650510e-02
  5.8993578e-01   4.9804072e-03
  7.7878708e-01   1.9906624e-01
 -4.9986033e+00   1.4479922e-01
  2.9478545e+00   2.8545042e-02
  2.4231379e+00   5.5473182e-02
 -3.9024773e-01   1.0855974e-01
 -1.8630956e+00   2.6565330e-02
 -4.4651651e+00   5.0271329e-02
 -1.7430058e+00   9.1290265e-02
  2.0135260e+00   8.7154113e-02
  1.2515028e+00   4.7419108e-03
 -3.9340138e-01   7.5029396e-02
  1.4174658e+00   1.1527960e-01
  4.1963339e+00   6.8829127e-02
  6.4266624e+00   1.5351306e-01
 -5.9876882e-02   3.1973055e-01
  3.0865788e+00   7.9837434e-02
  1.4663503e+00   4.5148337e-01
  4.6509428e+00   1.9003227e-01
 -1.5901340e+00   9.4593704e-02
  3.9696133e+00   3.2528973e-01
 -9.6091580e-01   3.4082040e-02
  1.1397632e+00   4.6220493e-02
  1.6387187e+00   2.4230045e-01
  3.9432921e+00   4.2613480e-02
 -4.1716056e+00   6.3584939e-02
  4.1230488e-01   2.0340313e-01
  1.9133004e+00   3.8930544e-01
 -4.9740252e+00   7.2379425e-02
  3.1846192e-01   2.9159110e-02
  2.4418275e+00   2.5569156e-01
  1.2208264e+00   1.2964286e-02
 -2.9271064e+00   4.8495042e-01
  4.0047498e+00   1.4809141e-01
  2.7843690e+00   2.5069112e-01
 -1.8481395e+00   1.5390095e-02
 -2.6339288e+00   6.0385650e-01
  1.2792464e-01   5.0361082e-02
 -3.5730451e-01   5.7107174e-01
 -4.4828278e-01   1.2435665e-02
 -1.2614155e-01   3.7014198e-01
 -3.5132959e-01   4.5343131e-02
  3.6305845e+00   4.2610768e-02
  4.3988709e+00   1.4819807e-01
 -4.2547417e+00   1.2798466e-01
 -2.9226427e+00   1.6679478e-01
  9.0694702e-01   1.9467551e-02
 -7.8763318e-01   6.1730817e-02
 -1.2886381e-01   2.8765219e-01
  3.3440826e+00   6.6421814e-02
 -2.9093637e+00   2.6371719e-02
 -1.4075983e+00   1.3611608e-02
  2.9165449e+00   1.9232869e-01
 -5.2358484e+00   4.4694787e-01
 -4.9273911e+00   1.8347880e-01
  2.0054748e+00   5.1809773e-02
 -1.0643053e+00   1.2887520e-01
 -1.0766163e+00   1.5213075e-01
  8.3522362e-01   7.0119239e-02
  1.6334181e+00   1.7319576e-01
  2.8637397e+00   6.0272008e-02
 -6.6107020e+00   6.1524358e-02
  1.6217974e+00   6.5395911e-03
 -3.6976153e-01   3.9661616e-02
  2.8547075e+00   1.1880705e-01
  5.1183677e+00   1.0942671e-01
  3.9102471e+00   1.8552735e-01
  4.8526597e+00   1.8176457e-02
 -5.9589177e-01   1.8569341e-02
  1.6976055e+00   8.9751445e-02
 -1.0559145e+00   1.9049840e-01
  1.5610518e+00   3.6115357e-01
  2.6851216e-01   1.1395330e-02
  1.8457148e+00   5.7476051e-02
  2.4521279e+00   6.0806572e-02
  4.0098801e+00   1.6960962e-01
 -1.2917676e+00   8.3821702e-01
  1.8635539e+00   2.4976486e-02
 -2.1624365e+00   2.6702894e-02
  5.9960585e+00   1.3037252e-01
  2.2135048e-01   1.3457665e-01
 -1.5240934e+00   3.2548118e-01
 -2.0333058e-01   2.2839805e-02
 -7.3424542e-01   4.8447907e-02
  4.7030168e+00   4.5202139e-01
  3.7533545e+00   1.8350098e-01
  3.9773436e+00   7.7293791e-02
 -3.6811793e+00   2.1864113e-01
  1.0201756e+00   1.1976811e-01
 -4.5151310e+00   3.4586909e-01
 -3.5611489e+00   8.0207884e-02
  1.2274060e+00   2.5752679e-02
  8.4216225e-01   1.1229923e-01
 -9.6324575e-01   1.6041023e-01
  7.3385364e-01   2.0033149e-01
 -1.0882751e+00   1.0385902e-01
 -2.0716543e+00   2.2286907e-01
 -3.3186779e+00   4.3033758e-01
  1.9921304e+00   1.5763575e-01
  3.6980319e+00   4.4285908e-02
 -1.4939580e+00   7.9738572e-02
  1.0074170e+00   3.1818986e-02
 -9.1265053e-01   1.7606743e-01
  1.0576633e+00   6.5953985e-02
 -2.3865402e+00   1.6093305e-01
 -7.3585212e-01   1.9283855e-01
  2.5571046e+00   2.0849825e-01
  2.0544598e-01   5.9408084e-02
 -1.8670892e+00   5.9772335e-02
 -1.5553647e+00   3.1140635e-02
 -1.3324608e+00   5.2404776e-02
  3.0676904e+00   3.0876676e-02
 -2.4604504e+00   5.0051618e-02
  4.8651342e+00   1.1583616e-01
 -1.3661076e+00   8.6348198e-02
  6.6828346e+00   2.8996703e-01
 -1.2690058e+00   4.6684963e-01
  3.2878582e+00   8.3337523e-02
 -2.7922705e-02   1.6454186e-02
 -1.0533979e+00   1.4532986e-02
 -1.5771410e+00   5.5034366e-02
  1.1140176e+00   2.3968687e-02
  4.0030298e+00   4.3606251e-02
 -3.0041339e+00   6.1817605e-02
 -4.5370951e+00   4.2094225e-01
 -2.0436182e+00   1.4150093e-01
  9.8095453e-01   4.9704604e-02
  2.2268310e+00   1.4859509e-01
 -3.8629770e+00   3.0794889e-01
 -3.8956449e+00   2.6343124e-02
  7.7407837e-01   3.1552799e-02
  3.9460301e-01   7.2179191e-02
 -3.5597129e+00   1.8778914e-01
 -4.1893091e+00   1.9810600e-02
 -2.6972773e+00   1.3778700e-01
 -1.2356827e-01   5.7393055e-02
 -2.6961045e+00   8.4307656e-02
  9.1645420e-03   7.4573323e-02
 -1.5474234e+00   6.9487527e-02
  7.4306828e-01   9.9471688e-02
  4.7013548e-01   3.9118875e-02
  1.9538380e+00   8.2809940e-02
  6.2569628e+00   1.8636690e-01
  5.4195948e+00   6.7617156e-02
  1.1472773e-01   6.8047368e-03
  1.1099505e+00   1.4630332e-02
  1.7905827e+00   1.3701847e-01
  1.8076264e+00   3.4312971e-02
 -3.1709669e+00   5.8760330e-02
  8.2597703e-01   6.1919395e-02
  1.5006686e+00   3.4257956e-02
 -3.4871972e+00   5.6884527e-02
  1.1958734e+00   7.0315719e-02
 -1.3411615e+00   2.4086820e-02
  4.0385966e+00   1.9576604e-02
  5.2930906e-02   1.4740402e-01
  1.6505606e+00   4.4140551e-02
 -4.6301198e+00   5.6204163e-02
  2.8071873e+00   2.9270761e-02
 -4.1233492e+00   8.9926973e-02
 -2.2380962e+00   5.3990636e-02
 -5.0026908e+00   1.2553376e-01
 -1.4665827e-01   6.4902954e-02
 -5.9176936e+00   4.9030673e-02
  2.7578315e-01   1.2017132e-02
  2.9115860e+00   4.6393070e-02
 -5.2937794e+00   3.0393481e-02
 -5.7058179e-01   2.7212320e-02
 -4.6653691e-01   2.7761076e-02
 -1.6480727e-01   5.6293767e-02
  5.8400708e-01   1.2870002e-01
  3.1650612e+00   4.2170603e-02
 -7.4427521e-01   1.5711615e-02
 -1.5218672e+00   2.9340886e-02
 -1.5029266e+00   3.1367071e-02
  7.3598331e-01   2.7835028e-02
 -5.2962404e-01   4.0612049e-02
 -7.7548921e-01   3.8283926e-02
 -1.4673532e+00   4.5307554e-02
  8.5180253e-01   2.8115604e-02
 -3.9017916e+00   5.0535660e-02
 -2.6227290e-02   4.4172010e-03
  2.9732990e+00   1.0363989e-01
 -4.7872978e-01   5.9495434e-02
 -9.2596501e-01   7.5384830e-03
  6.8826098e+00   1.2551615e-01
  1.4485682e+00   1.4989061e-02
  2.5297887e+00   4.2711634e-02
 -8.8589594e-02   6.3403495e-02
 -1.5993100e+00   3.6744654e-02
 -5.0657272e-01   1.2303708e-02
 -7.4645724e+00   4.8295017e-02
  2.2376051e+00   6.0126118e-02
 -1.2829735e+00   8.7978104e-03
 -2.1006446e+00   2.0471530e-02
  2.2567394e+00   2.6337851e-02
  1.6787729e+00   9.6377276e-02
  2.9311736e+00   5.7787508e-02
  1.5781727e+00   1.3888948e-02
  6.6902167e-01   2.9186239e-02
  2.5267522e+00   1.1761689e-02
 -2.8901517e+00   1.4354888e-02
  1.4056544e-01   2.0968612e-02
 -3.9543340e+00   8.2485555e-03
  2.9222093e+00   3.3492610e-02
 -2.1894464e+00   4.4438943e-02
  4.3043825e-01   7.3271982e-02
  8.5543084e-01   1.4377293e-02
  1.7964474e+00   7.6943077e-03
  2.1328058e+00   1.3697110e-01
 -1.8296175e-01   1.2602919e-01
  1.6563562e+00   2.9314704e-02
 -2.6198206e+00   8.3038434e-02
  2.0027246e+00   5.8087148e-02
  1.9946240e+00   3.1872965e-02
  6.5536869e-01   4.3774169e-02
 -2.5103767e+00   1.2070125e-01
 -3.8502905e+00   5.2382689e-02
 -8.8984400e-01   2.3905623e-01
 -6.3658792e-01   1.0779440e-02
 -4.9754119e-01   1.2354437e-01
  2.8150504e+00   7.6338008e-02
  2.4092236e+00   1.4775740e-01
  5.9904259e-01   1.6298312e-01
 -4.3568859e+00   5.0267223e-02
 -2.9893911e-01   1.9435905e-01
  1.1212106e+00   1.2364682e-01
  4.1124207e-01   4.0895578e-01
  1.3848503e+00   1.2787803e-01
  2.4725826e+00   1.7687991e-02
  6.2491179e-01   5.8733303e-02
  5.1229529e+00   3.3776572e-01
 -5.3050776e+00   9.4618313e-02
 -7.0372355e-01   3.8169432e-02
 -4.2336278e+00   1.9879252e-01
  7.4110013e-01   5.9422094e-02
  3.8716884e+00   2.0033373e-01
  1.6775517e+00   2.6734832e-01
  1.7397246e+00   3.5620157e-02
  8.8125300e-01   6.5061629e-02
 -2.3564598e-01   7.4859090e-02
 -1.0986712e+00   5.5431727e-02
  4.8307979e-01   1.8050687e-01
 -1.7350833e+00   3.3233404e-02
  2.8480983e+00   9.4419904e-02
 -3.2929065e+00   6.1493777e-02
  4.0181160e+00   2.3371388e-01
 -1.6441019e+00   6.0080584e-02
 -4.2312436e+00   6.5622576e-02
 -2.4019653e-01   3.3645681e-01
 -1.0249008e+00   7.2168189e-01
  9.0848643e-01   2.0838648e-01
 -1.4981619e+00   8.5781163e-01
 -6.5013045e-01   1.1663833e-01
  4.5971394e+00   1.9019164e-02
 -1.8662648e+00   1.8876480e-01
  7.8284526e-01   1.0425129e-01
 -3.2210383e+00   3.7120692e-02
  3.4831014e+00   8.2030468e-02
 -5.5105793e-01   5.2178752e-01
 -1.2474103e-01   1.4558872e-02
  1.0598472e+00   3.9783262e-02
 -1.0243543e+00   3.8762502e-02
 -4.6831846e-02   1.3640858e-01
 -1.5557537e+00   4.5701679e-02
  3.8708231e+00   9.6161425e-02
  5.4823732e-01   4.4640165e-02
 -3.9482574e+00   8.3994471e-02
  1.6015303e-01   2.7734247e-01
 -5.2447969e-01   2.4909075e-02
  1.7633384e+00   9.2090249e-02
  1.0093960e+00   8.5172102e-02
 -7.8043294e-01   7.3168114e-02
 -1.9407550e+00   3.1781480e-01
 -9.1232651e-01   2.0647381e-01
 -2.5296560e-01   7.1228102e-02
 -1.7443311e-01   1.1552059e-01
 -4.9409256e+00   7.5271189e-02
 -1.8835695e+00   4.9229812e-02
 -2.6148856e-01   3.5405290e-01
  3.6689432e+00   2.0595339e-01
  6.2229019e-01   3.5987884e-02
  2.0362296e+00   8.8156931e-02
 -2.0383394e+00   1.5988301e-01
 -2.8662326e+00   1.4561391e-02
  2.9222292e-01   1.8519092e-01
 -5.9302912e+00   1.4078736e-01
 -2.0683336e+00   3.4267779e-02
 -9.3852907e-01   1.0874184e-02
  1.5713247e+00   1.9635861e-01
 -5.2813977e-01   5.5090085e-02
  2.9034092e+00   9.5602654e-02
  4.3948090e-01   8.8331528e-02
 -1.9125642e+00   4.4599790e-02
  1.3320568e+00   1.3418317e-01
  1.7039393e-01   1.2486129e-01
  1.1268679e+00   7.2461091e-02
 -3.1599491e+00   5.6778241e-02
 -2.2043471e+00   1.6060438e-02
  4.1936463e-01   1.0322043e-01
 -4.5148630e+00   6.3923717e-01
 -3.2408974e+00   5.5049755e-02
  1.4941078e+00   4.1717649e-01
  4.7148470e-02   6.9303244e-02
  1.1275496e-01   4.6962202e-02
  5.2523392e-01   1.9598676e-02
  1.2288978e+00   5.8429692e-02
 -3.1883743e+00   3.8823196e-01
  9.2938162e-02   1.5776403e-02
  2.3138583e+00   2.2088246e-01
 -6.9813138e-01   6.2354743e-02
 -4.7506446e-01   9.7973563e-02
 -9.6721959e-01   2.8270760e-01
 -1.4555490e+00   2.4277033e-02
  9.2794341e-01   3.4557391e-02
 -1.3647534e+00   2.4505939e-01
 -6.3338370e+00   2.3774748e-01
  3.0900666e-01   3.1929389e-02
  1.5970492e+00   1.2821232e-01
  5.1045310e-01   9.1989584e-02
  2.0116578e-01   2.5227505e-01
  2.4369030e+00   1.2771013e-01
  8.1568742e-01   4.2248338e-02
  7.5378346e-01   4.9195919e-02
 -1.2947342e+00   1.2930504e-02
  2.0278430e+00   4.6364747e-02
  2.6200206e+00   4.1587096e-01
  5.1403394e+00   7.6821548e-01
 -7.1055597e-01   4.2350870e-02
 -6.2114364e-01   8.5653998e-02
  2.1680017e+00   2.3726285e-01
  7.4665728e+00   1.0696949e-01
 -9.5087868e-01   1.7613005e-02
 -2.6337185e+00   9.6388668e-02
 -1.0344306e-01   8.2580097e-02
  9.6915817e-01   2.5593510e-02
 -4.4739151e+00   2.0631321e-01
  1.7083954e+00   7.3934473e-02
  1.3799012e+00   4.3954581e-02
 -2.8087325e+00   3.9194769e-01
 -1.6043665e-01   5.2325841e-02
 -1.1987749e-01   1.4250824e-01
 -1.1675371e+00   3.9294645e-02
 -4.2757759e+00   9.9941559e-02
  3.9761560e+00   5.0615814e-02
  5.0101266e+00   6.1607014e-02
  2.5681047e+00   4.1317318e-02
  4.3037441e-01   1.5762802e-02
 -3.4184084e+00   2.1346435e-01
  7.2129440e+00   6.2309980e-01
  6.2340889e+00   3.5865867e-01
 -4.5246687e+00   3.2289836e-01
  1.6668915e+00   4.0970537e-01
  4.1566694e-01   9.0046078e-02
  4.6217096e-01   1.8178860e-02
 -8.1135231e-01   4.0921294e-03
 -2.9829483e+00   8.9509636e-02
  4.4788799e+00   1.1527581e-01
 -2.1410308e+00   1.2049501e+00
  3.0222859e+00   1.6366354e-01
  2.5632231e+00   9.9078007e-02
  1.8613313e+00   2.4019087e-02
 -5.4354072e+00   6.3561752e-02
  2.4980526e+00   1.9921395e-01
  3.3365588e+00   2.0727938e-02
  1.7641069e+00   3.2349056e-01
  1.3632445e+00   3.5443321e-02
  2.2663674e+00   2.5087489e-02
 -3.0293586e+00   1.7823026e-02
  2.4936509e+00   2.7689874e-01
  1.8681198e+00   6.3308813e-02
  5.4153883e-01   1.1243766e-01
  2.5723770e+00   2.1573324e-02
  9.8189270e-01   8.9149624e-02
 -3.2075381e+00   9.6879743e-02
  3.9253479e-01   8.3068751e-02
 -2.1814988e+00   3.3023810e-01
  2.6790080e+00   1.0750775e-01
 -1.5120997e+00   1.1351185e-01
 -8.0482966e-01   1.0948426e-02
 -4.0303034e-01   1.7557047e-02
  4.2794642e+00   1.2076578e-01
  7.9193771e-01   6.9434337e-02
 -2.0049393e+00   5.1429112e-02
  6.2078702e-01   1.3731733e-01
 -1.5013633e+00   8.9817800e-02
  4.2148938e+00   1.7591284e-01
 -3.2031074e-01   9.4965056e-02
  9.2993069e+00   1.6368349e-01
  2.4233272e+00   2.8570777e-02
 -3.1086216e+00   7.8271888e-02
  5.1378328e-01   5.1727224e-02
 -5.8030858e+00   3.6934745e-02
 -1.8226744e+00   1.6725317e-01
 -1.2421273e+00   3.8561206e-02
 -3.8775671e-02   1.3371527e-02
 -4.7890253e+00   1.0837335e-01
  1.7922430e+00   5.7966765e-02
  4.0397601e+00   1.0734928e-01
  1.1655559e-01   3.8678408e-02
  2.7890515e-01   8.1047498e-02
  2.0968623e+00   4.5046743e-02
  7.7901490e-02   4.4546559e-02
 -9.2679745e-01   1.0053866e-01
 -8.7711364e-01   9.6562274e-02
  2.4912015e-01   1.9793460e-01
 -2.7852380e+00   1.4720125e-01
  2.4617994e+00   6.0603898e-02
 -1.0610000e+00   1.5051027e-01
  2.3131087e+00   7.3937424e-02
  4.7248420e-01   1.2275121e-01
  4.9574161e+00   2.9962751e-01
 -1.1372013e+00   1.2063029e-01
 -3.3161170e+00   1.5605073e-01
  1.7757266e+00   1.8207423e-02
 -1.0939202e+00   1.3117950e-01
  3.9531229e+00   9.4878949e-02
  2.4722416e+00   2.7576067e-02
  6.2100011e-01   1.3546963e-01
  2.5139311e-01   8.3646573e-02
 -4.6253651e-01   9.2616729e-02
  4.2394829e+00   2.8168850e-02
  5.1784124e+00   1.4834574e-01
  2.2962165e+00   1.5087857e-02
  2.6102479e+00   4.9452923e-02
  1.6321787e+00   2.3043898e-01
  1.2048349e+00   9.8647401e-02
 -5.5969352e-01   1.3159965e-01
  4.6280680e+00   3.8367249e-02
  3.5281155e+00   3.2199726e-02
 -2.3704412e+00   3.2782983e-02
 -1.7865124e-01   4.8729759e-02
 -3.0283496e+00   1.1501975e-02
 -1.6148348e+00   8.8205732e-02
  4.8236844e-01   3.9056953e-02
  1.6644535e+00   1.2642339e-01
  1.4663154e+00   2.7068531e-02
  8.9816742e+00   4.3742329e-01
 -2.1088865e+00   3.0697597e-02
  1.0033852e+00   2.8235182e-01
  4.0957153e-01   1.8990605e-01
  2.0067928e+00   2.1631257e-01
  1.7753274e+00   1.5854868e-01
  4.4688836e-01   5.1280758e-03
 -5.0871953e-02   1.3669726e-01
  2.4630039e+00   8.7482139e-02
 -1.6468288e+00   1.8032254e-01
  4.0224733e+00   6.0425036e-02
 -3.6953785e+00   1.3617653e-01
  1.1831231e+00   2.4947984e-02
  1.5687829e+00   1.5271631e-01
 -2.7077827e+00   4.5472920e-02
  2.8874284e-01   1.4479293e-01
  1.8634237e+00   8.8270739e-02
 -5.0647444e-01   2.1124381e-01
 -1.1898274e+00   6.2430110e-02
  2.7386751e+00   8.9365743e-02
 -2.7246053e+00   5.3594731e-02
 -2.3268917e+00   1.4233096e-01
  3.1268694e+00   1.5070708e-02
 -1.3212621e+00   4.7529642e-02
  3.3160055e+00   1.9617258e-02
  2.5394118e+00   1.3512672e-01
  8.6662874e-02   2.2445759e-01
 -1.3496798e+00   1.2357358e-01
  2.5503427e-01   5.4879580e-02
  5.0298923e-01   2.0203039e-02
  1.9766974e+00   5.0204735e-02
  2.2450812e+00   6.8167537e-02
 -5.0829096e+00   2.7628806e-01
 -4.4887919e+00   3.8527392e-02
 -4.1703520e+00   3.5670760e-01
 -2.8426836e+00   9.5756389e-02
 -9.4359666e-01   1.7436643e-01
  1.8809587e+00   1.5838226e-02
 -2.3966239e-01   5.6651741e-02
 -7.6000834e-01   4.4863161e-02
 -4.5441252e-01   5.5610284e-02
 -1.4841895e+00   1.9856229e-01
  4.1798019e-01   2.5729218e-01
  4.3027592e+00   9.1504961e-02
 -1.2126040e+01   1.0602368e-01
 -1.1204790e+00   2.2020929e-02
  1.9468195e+00   1.0540497e-01
  1.4341772e+00   2.0334559e-02
  1.4353640e+00   1.9567390e-01
  1.1811745e+00   9.0251938e-02
  1.1930935e+00   3.1001851e-01
  2.6171575e+00   9.6222855e-02
 -2.0111708e-01   1.1563152e-02
  1.3584038e+00   6.1659846e-02
  1.0720174e+00   2.8455377e-01
  2.3803668e+00   9.5289037e-02
  1.7345034e-01   1.2542339e-01
  1.1305317e+00   3.8496371e-02
  5.0681984e-01   2.0092325e-02
  2.2690052e-02   1.4112537e-01
 -1.1494736e-01   4.2160955e-01