 -2.9752904e-01   1.1911573e-01
 -1.9212976e+00   2.0155066e-01
  9.0675879e-01   1.2722646e-01
 -1.2616264e+00   1.2140521e-01
  2.8241000e-01   4.2947505e-02
  3.5301344e+00   7.0998080e-02
  1.3991476e+00   3.6699902e-02
  5.1694912e-01   1.0585986e-01
  3.9838686e+00   1.3028362e-01
  4.3216810e+00   1.9532627e-01
 -8.8038701e-01   7.4929520e-02
 -4.4438383e-01   1.7357476e-01
  1.1451222e+01   6.0172800e-02
  2.3762162e+00   1.0989894e-02
  2.9823956e+00   1.2830599e-01
 -2.4288456e+00   3.1758609e-01
 -1.4609561e+00   2.3047775e-02
 -2.9374686e-01   1.5748325e-01
  4.8302817e+00   8.4672339e-02
 -2.0921376e+00   1.3104443e-02
 -4.6611881e+00   3.5570750e-01
 -7.9667940e+00   1.7116323e-01
  4.7075338e+00   1.6799384e-01
  4.8994846e+00   1.1491207e-01
  2.1939049e+00   1.4108337e-01
  1.4667832e+00   9.4752558e-02
  5.7401562e+00   1.3094516e-01
  3.5497923e+00   1.4685834e-02
  1.8466436e+00   1.4392596e-01
  2.9067769e+00   5.5286758e-02
 -1.9586318e+00   4.9300589e-02
 -1.8959533e+00   1.8292598e-01
 -4.5644186e-02   1.2882687e-01
  2.3877912e+00   1.0700666e+00
  5.4089565e+00   4.5027219e-02
  1.2388083e+00   1.8749499e-01
  2.0993090e+00   1.1869116e-01
 -6.2261719e-01   4.7878250e-02
  7.1851678e+00   5.0771151e-02
 -2.6921687e-01   4.3330316e-02
  2.5791982e-01   1.2079451e-01
 -1.2933774e+00   1.3818754e-01
  2.0479803e+00   6.9289513e-02
 -2.3147974e+00   7.6494478e-02
  1.7266443e+00   1.5501682e-01
  1.1846795e+00   1.3060163e-01
 -1.7791935e+00   1.6968894e-01
  1.5129844e+00   1.0549498e-01
  3.9372241e-01   7.7114835e-02
  2.6737411e+00   4.7830261e-02
  9.1905254e-01   7.0378184e-02
 -1.6515360e+00   1.6664594e-01
  2.2320967e+00   2.3403996e-01
  1.9383049e-01   8.3827011e-02
  6.9209278e-01   1.5418866e-01
 -6.5752678e+00   2.3650227e-01
  1.1649424e+00   4.2753935e-02
  5.3880632e-01   3.0761436e-01
  1.9166636e+00   1.7475241e-01
 -6.9688516e+00   7.3121130e-02
 -4.6129704e+00   4.3847308e-02
 -1.9142669e+00   6.2951073e-02
 -2.2775404e+00   2.3255882e-01
 -6.3285518e+00   1.7040984e-01
  1.0043916e+00   4.2278729e-02
 -1.1327939e+00   5.4372031e-02
  3.4688571e-01   7.3677868e-02
  1.1587801e+00   1.5250370e-01
 -4.5746136e+00   6.5673672e-02
 -5.5775158e-02   5.6905597e-02
 -5.9528604e+00   3.7537202e-01
 -3.2209504e+00   5.9622198e-02
  3.6925871e+00   6.2407214e-02
 -1.0052723e+01   1.5910426e-01
 -4.8969536e+00   1.2079805e-01
  7.5660497e-01   2.3531683e-01
  2.3971465e+00   5.5453651e-02
 -4.2585244e+00   3.0568281e-01
 -1.1922129e+00   4.4118345e-01
  1.6640870e-01   3.5360564e-02
 -1.1122291e+00   3.9818935e-02
  5.5966434e+00   7.4596711e-02
 -6.5140641e-01   5.8747508e-02
 -1.8823533e+00   2.0690447e-01
 -3.0211117e+00   1.1489255e-01
  2.2226732e+00   2.7314050e-02
  3.4792762e+00   3.8752469e-01
 -4.9155426e+00   1.4128090e-01
 -8.4589189e-01   2.4844399e-02
  2.8809094e+00   1.3855457e-01
  3.7016864e+00   1.0705179e-01
  4.7724848e+00   2.5193959e-01
  6.0275817e+00   6.8068959e-02
 -5.7379427e+00   6.6292465e-02
 -4.4152832e-01   3.8576283e-02
 -1.2268589e+01   1.2593518e-01
  1.4742485e+00   2.0626895e-01
 -2.0546553e+00   6.2416412e-02
 -1.9587649e+00   1.7821477e-01
 -6.2236819e+00   3.3548841e-01
 -1.7238786e+00   3.0109476e-02
 -7.2282121e-02   2.8028166e-01
 -4.0536159e-01   1.7965467e-01
  2.2181576e-01   1.3488552e-01
  3.2538042e+00   2.2152303e-01
 -4.5043778e+00   1.6427165e-02
  6.3772478e+00   8.6452150e-01
  4.1068994e-02   1.2080663e-01
 -1.2097754e+00   1.8298714e-01
  3.8075712e+00   8.6381845e-02
 -1.2392839e+00   1.6946159e-01
 -4.2430477e+00   1.9248861e-01
  3.5152149e+00   4.4168554e-02
 -1.2820677e+00   8.9495771e-02
  2.0649312e+00   1.2085691e-01
 -5.3155708e-01   1.7199372e-01
 -1.3744403e-01   4.2840794e-02
 -4.9858353e-01   2.0706302e-01
 -9.6618348e-01   7.1719378e-02
 -5.0366789e-01   6.9476849e-01
 -7.5285139e+00   2.7889439e-01
  3.0282481e+00   1.2838143e+00
 -2.9484408e+00   1.1491572e-01
 -8.2356530e-01   2.3241015e-02
 -2.4207962e+00   1.5878597e-01
  2.1061292e+00   1.6351668e-02
  2.7185345e+00   9.9495985e-02
  2.6392999e+00   4.0582694e-02
  1.3728449e+00   7.4748084e-02
  4.8216645e-02   6.3778929e-02
  2.7423272e+00   7.1302794e-02
 -4.2520499e+00   6.4522229e-02
  2.3711358e-01   1.6724682e-01
  2.4571652e+00   2.5715651e-02
 -7.3720962e-01   4.6560641e-02
 -2.1192091e+00   1.6997381e-01
  5.1583805e+00   3.7767008e-01
 -1.8726186e-01   4.6342831e-02
  4.9719739e+00   9.2615083e-02
 -4.0470643e+00   5.8075902e-03
  1.0597192e+00   1.8166758e-02
 -8.2560730e-01   2.3106353e-02
 -2.6034340e-01   3.9524522e-02
 -2.4743414e-01   2.2874912e-02
  1.2796513e+00   7.4232534e-02
 -4.5529428e+00   2.5722244e-01
 -3.5069549e+00   4.2849146e-02
 -3.7384212e-01   4.7978677e-02
  2.5917728e-02   4.9026370e-01
 -4.5256251e-01   2.2289183e-02
  6.5018830e+00   4.1245458e-01
  2.2343418e-01   8.9915082e-02
 -4.0055265e+00   1.5618360e-01
 -6.8961024e-01   1.0615936e-01
  4.7384496e+00   1.3657653e-01
 -1.0630426e+00   2.6275761e-02
 -8.5261184e-01   5.4638837e-02
  3.2270949e+00   1.0229886e-01
 -3.7372890e-01   1.4368385e-01
  2.8166804e+00   1.2393247e-01
  7.3330438e-01   1.2795065e-01
  2.5364957e+00   4.5904309e-02
 -1.0802393e+00   6.2406689e-02
  1.1659611e+00   1.9171251e-01
  4.1290924e-01   1.2213761e-01
  4.5307908e+00   1.8838541e-01
 -2.4630282e+00   2.2169568e-01
  3.3824108e+00   4.7314513e-02
 -2.7547095e+00   2.0879200e-02
  3.8857577e+00   1.5052015e-01
  2.0615387e+00   4.3237101e-02
 -5.6872401e+00   1.4556283e-01
  2.6407738e+00   5.2738145e-02
  7.6034182e-01   5.4254368e-02
  4.4940311e-01   2.7568081e-02
 -8.3865700e+00   2.8373316e-01
 -6.7081290e-01   4.3158624e-02
  5.4208307e+00   6.7949630e-02
 -1.4845314e+00   1.2303276e-01
  8.9776808e-01   1.3678068e-01
 -3.7866013e+00   2.2553802e-01
  2.6694086e+00   6.2543906e-02
 -4.3277225e+00   6.5102078e-02
  1.5711678e+00   1.1618049e-01
 -3.9002769e+00   9.3345292e-02
  1.8222840e+00   1.9782783e-01
 -2.1327121e+00   3.7425060e-02
 -1.5263898e+00   5.2946728e-02
 -2.5268114e+00   7.5112388e-02
 -1.1027049e+01   1.7292759e-01
 -7.3054731e-01   2.1851072e-02
  6.7576563e-01   1.8935829e-01
 -1.1430398e+00   4.6469849e-02
 -1.5806518e+00   6.3700870e-02
 -2.7150896e+00   1.7192554e-01
 -5.8047409e+00   1.9460069e-01
 -1.9867761e+00   3.8857669e-02
  2.1176865e+00   9.3229756e-02
  3.4976680e+00   8.1385694e-02
 -4.4626689e+00   1.4340779e-01
  1.0444077e+00   5.7242647e-02
 -4.6971121e+00   5.7746910e-02
  7.1180625e+00   1.0770939e-01
  5.6816473e+00   2.1280946e-01
  4.0236926e+00   1.1182775e-01
  4.8240757e+00   1.6217346e-01
 -3.7849720e+00   1.1712979e-01
 -4.0084047e+00   7.1530133e-01
 -3.1115687e-01   2.4539775e-01
  2.0132871e+00   5.7048209e-02
 -3.6935515e+00   3.7591657e-01
 -5.4421697e+00   2.1264315e-01
  1.1828834e+01   3.3279115e-01
 -1.4667555e+00   1.3987714e-02
 -3.1420115e-01   5.5857930e-02
  1.0056689e+00   2.0194936e-01
 -2.9472990e+00   7.6059215e-02
 -2.7000847e+00   2.3653929e-01
 -4.2299852e+00   1.7288624e-01
  5.5217639e-02   4.7538709e-02
  6.2401187e-02   1.2628503e-01
 -3.5020077e-01   7.4118502e-02
 -7.7935228e+00   1.4705291e-01
  6.8783617e-01   2.8740278e-02
 -2.0393765e+00   1.6475861e-01
 -5.4122109e+00   3.1145480e-01
  2.0461371e+00   1.9578294e-01
 -1.4845133e+00   1.4147204e-01
 -8.2194835e-01   3.4772679e-02
 -9.7250640e-01   9.3662277e-02
  2.5205786e+00   1.5031679e-01
  2.7309513e+00   3.1690326e-02
 -5.6005388e-01   1.3495627e-02
 -2.4063296e+00   4.9682170e-01
 -7.9035425e+00   1.3626489e-01
  2.0392413e+00   5.5643182e-02
  3.4311681e+00   5.7324297e-03
 -2.1755221e-01   2.1550867e-01
  3.2765300e+00   7.5527452e-02
  1.5082501e-01   5.8449820e-02
 -2.3657527e+00   1.3729169e-02
  3.5738175e+00   9.6882038e-02
 -3.3064370e+00   3.9300743e-02
  1.2799622e-01   9.5043592e-02
  1.7584993e+00   5.4329239e-02
 -1.1533720e+00   7.4343756e-02
 -2.3156571e+00   9.2548124e-02
 -2.2431438e+00   1.4643258e-01
 -4.9087426e-01   8.0681100e-02
  3.5683563e+00   2.1172132e-01
  8.3847582e-01   1.1799626e-01
  3.1578653e+00   9.7436704e-02
  1.2249210e+00   7.2177388e-02
 -8.3845258e-01   1.7927496e-02
 -7.3822603e+00   1.3487495e-01
 -1.7758057e+00   2.7968930e-02
  2.4584942e+00   3.8292983e-01
 -7.8976566e-01   3.2540992e-02
 -1.1057112e+01   3.3962351e-01
  1.1951860e+00   2.8196130e-02
 -4.1690889e-01   1.1021605e-01
 -2.3956597e+00   1.5183800e-01
 -1.4965559e+00   8.7989815e-02
  3.1926208e+00   2.1319813e-01
  4.4686360e+00   2.7408209e-01
  2.2195010e+00   1.2474326e-01
  7.0678419e-01   6.3358516e-02
 -5.8678385e-02   1.3724770e-01
  1.8521448e+00   8.7555462e-01
 -1.6851933e+00   1.9216882e-02
 -9.6788061e-01   2.4263572e-02
 -1.9439927e+00   1.3397333e-01
 -2.4740484e+00   2.8772077e-01
 -4.8501072e+00   2.1794726e-01
 -2.9690221e-01   3.6569800e-02
 -6.2977061e-02   8.5379869e-02
  1.2644805e+00   1.6112747e-02
 -9.4783463e-02   1.5472426e-01
 -1.0514151e-01   1.1110684e-01
  1.2245481e+01   2.3105338e-01
  7.3940235e-01   3.7323454e-01
  1.6804882e+01   7.4612486e-01
  9.0568382e-01   3.1152980e-02
  3.1836516e-01   9.4913237e-02
  9.4282216e-01   1.5028388e-02
  3.8782721e+00   1.9209397e-01
  2.3159299e+00   1.4552817e-01
  1.4313856e+00   1.9896527e-01
  1.1198529e+00   1.9777298e-01
 -3.4178617e+00   1.3208750e-01
  3.7878886e-01   1.9296356e-01
  3.7904022e+00   1.7210704e-01
 -1.0615808e+01   1.6842753e-01
  5.4816666e+00   4.8744395e-02
 -8.1302577e-01   2.4060437e-02
  1.6924320e+00   2.5740631e-02
  3.8289165e+00   1.1363093e-01
 -2.4501455e+00   1.9143219e-01
 -2.8668031e-01   3.3088908e-02
  1.0601776e+00   3.6307263e-01
  5.8428760e+00   9.4015884e-01
  8.1725828e-02   1.6422080e-02
  3.3466792e+00   1.8901023e-01
  8.0373774e+00   8.9217365e-02
 -1.9384348e+00   1.9709735e-01
 -3.8436067e+00   7.1049243e-02
 -4.4107053e-01   1.5772585e-02
 -1.3913447e+00   5.8575928e-02
 -3.4076563e-01   1.2488449e-01
  9.5313495e-01   9.6346475e-02
  2.8154187e+00   4.6063522e-01
 -1.4327179e+00   1.5106171e-01
  1.9732882e+00   2.0887772e-02
 -3.9760891e-01   4.9670856e-02
  1.1524288e-01   9.4945446e-02
  3.3399606e+00   3.0777184e-02
  5.4164529e+00   1.5875682e-01
  2.3660679e+00   4.2902555e-02
 -4.9774184e+00   6.7039840e-02
 -1.0436122e+00   4.4055004e-02
  4.0422463e+00   1.3816594e-01
  7.4575388e-01   1.7200080e-01
  1.5978998e+00   1.4585121e-01
 -2.6087293e-01   7.1435921e-02
  1.6159337e+00   6.4875267e-02
 -2.8475461e+00   7.4419715e-02
  2.0529568e+00   1.3784957e-01
  5.0135070e-01   3.4797192e-02
  1.6992476e+00   4.3618888e-02
  2.0666625e+00   2.3983034e-01
 -1.3505259e+00   6.3638881e-02
 -3.7065353e+00   1.8627009e-01
 -5.7468357e+00   9.1467470e-02
  6.3395089e-01   1.4985346e-02
  3.1207416e+00   1.2691395e-01
  6.2299480e+00   6.1699665e-01
 -7.8486454e-01   2.3653713e-01
 -4.6675539e+00   6.6528223e-02
  2.5952349e+00   1.4343366e-01
  4.0376410e+00   1.3454464e-01
 -2.0032296e+00   2.1563871e-01
 -2.8726247e-01   3.4426443e-02
 -5.7869667e-01   2.0705450e-01
 -1.1249657e+00   8.0500312e-02
  3.6407373e+00   6.9396310e-02
  9.2917550e-01   5.6598440e-02
 -6.7528558e+00   1.6310480e-01
  1.2350014e+01   1.6172625e-01
  1.8760947e+00   1.3350335e-01
 -1.9997476e+00   8.4514461e-02
 -2.8094153e+00   3.7411015e-02
  3.1659405e+00   1.3257805e-01
  9.7033501e-01   1.0182357e-01
  6.1018652e-01   6.4350098e-02
  5.3296137e+00   1.1186231e-01
  8.6537056e+00   6.7010045e-02
 -8.4836543e-01   1.6785468e-01
  1.1376554e+00   1.4280024e-01
  1.8614942e+00   9.5530823e-02
 -1.5647817e+00   4.4589907e-02
 -2.9896204e+00   1.6835338e-01
 -6.1378545e-01   1.4770602e-01
 -5.2873755e+00   3.1310970e-01
  5.4573137e-01   2.0175521e-01
  2.7996895e+00   1.5961596e-01
  4.3116298e+00   5.4282848e-02
 -4.3812027e+00   6.1244007e-02
 -3.9219522e+00   6.3182481e-02
  1.7927442e+00   8.0267720e-02
  1.6560652e+00   1.3539584e-01
 -5.3588009e+00   5.2191895e-01
  1.2060788e-01   1.1837471e-01
  4.2579899e+00   3.8545396e-02
  2.6163428e+00   1.7774585e-01
  5.7195497e+00   1.0068229e-01
  3.0867584e+00   7.7172495e-02
 -8.9746445e-01   7.5056553e-02
  8.4151196e-01   1.2749907e-01
  3.6177461e+00   9.3676873e-02
  9.0055561e-01   2.4653275e-02
 -6.7272716e+00   3.6878403e-02
 -8.4465855e-01   7.5740297e-03
  3.1611545e+00   9.1582365e-02
  2.7246168e-01   7.0899308e-02
 -3.7408509e+00   1.2095378e-01
 -1.2303467e+00   8.5160032e-02
  2.4712968e+00   9.6189685e-02
 -1.0541879e+01   1.8165179e-01
 -3.6285663e+00   6.1623324e-02
  6.2244492e+00   1.7921935e-01
 -6.4550276e+00   7.5277680e-01
 -1.6881535e+00   5.2774366e-02
  4.6078296e+00   3.4594148e-01
  2.0572478e-01   4.4235510e-01
  1.4681492e+00   2.3748890e-02
  3.5834475e+00   1.1793941e-01
  2.2624080e+00   4.4817399e-02
 -2.7932394e+00   2.9148787e-02
  2.2679889e+00   1.9246737e-02
  1.0593420e+00   1.0634802e-01
 -3.0661058e+00   1.0746305e-01
  2.0830874e+00   6.6204771e-02
 -8.2786554e-01   5.0154440e-02
  1.1786059e+00   1.1414707e-01
  2.6594847e-01   6.2110361e-02
 -1.9659485e-01   1.8029985e-01
  8.8040340e-01   2.6224285e-01
  2.2114287e-01   1.5333223e-01
  1.9338396e+00   4.7645357e-02
  1.6751015e+00   5.2772459e-02
 -1.3508191e+00   2.4168879e-02
 -7.1131778e+00   1.1846843e-01
  2.6079156e+00   9.1387846e-02
 -3.4835248e+00   1.3498408e-01
  1.4996877e+00   2.7276848e-02
  1.9179443e+00   2.1170814e-01
 -5.5599284e+00   3.1206566e-01
  2.3033147e+00   4.6902712e-02
  6.6538644e+00   1.7196020e-02
  6.1821085e-01   1.1382561e-02
 -1.5998181e+00   4.7846239e-02
  6.3495898e+00   1.5720154e-01
  1.4862696e+00   5.0044894e-02
  2.0225136e+00   1.1973929e-01
 -1.9362733e-02   1.2855572e-02
  1.4295231e+00   1.4835434e-01
 -5.2957010e+00   3.7064058e-01
 -1.7332896e+00   4.8652962e-02
 -1.3212497e+00   2.1392153e-01
 -6.0487610e-01   5.8691241e-02
 -1.0702628e+00   7.9135962e-02
  3.5368912e+00   1.5485406e-01
  2.1944827e-01   1.0083998e-02
  2.6781597e+00   1.5767079e-02
 -1.4188243e+00   1.0290311e-01
 -1.5416179e+00   7.7003382e-02
 -1.0938635e-01   3.5841446e-02
 -5.9701195e+00   1.3150573e-01
 -5.3123391e-01   7.8588843e-02
 -9.5202446e-01   4.8158016e-02
 -2.0167153e+00   1.7140074e-01
 -2.8304174e+00   8.7339424e-02
 -5.5376637e-01   3.4564383e-02
  1.0713041e+00   3.5527900e-02
  5.4930930e+00   3.9987171e-01
  2.0315955e+00   1.7187271e-01
  4.2082450e-01   4.5682367e-02
 -2.3304102e-01   6.6309266e-02
 -2.6764801e+00   1.1297909e-01
 -1.8212217e-01   9.9428974e-02
  5.1619238e-01   3.1372216e-02
  3.5134819e+00   5.3479332e-02
  2.3690933e-01   4.9324691e-02
  3.1541946e+00   9.5996238e-02
  1.4695743e+00   6.5338835e-02
 -3.6587659e-01   3.1475118e-01
  9.6224648e-01   1.8190184e-01
  5.1366630e+00   7.6360665e-02
  1.6110071e+00   6.0418349e-02
  2.6076204e-01   3.4965701e-02
 -3.5643833e+00   1.3068981e-01
 -1.8552706e+00   2.8016575e-02
  8.1706209e+00   1.6592577e-01
  7.2668344e-01   9.7720593e-02
 -4.7363553e+00   1.7572956e-01
 -3.7696531e-01   6.9134854e-02
  4.2218084e+00   5.2678362e-02
  1.1589775e+00   4.4151958e-02
 -8.7069595e-01   5.4401952e-01
  9.6888542e-01   1.6441281e-01
  3.5998032e+00   1.3889796e-01
 -6.0652046e+00   8.2274294e-01
 -4.9111122e-01   3.6966231e-01
  5.4070892e+00   1.0911798e-01
  1.4039890e+00   3.8510469e-01
 -6.8337350e+00   5.0656992e-01
 -4.5731907e+00   1.1877029e-01
  1.6514347e+00   2.2878883e-02
  4.3828802e+00   1.1477087e-01
  2.7545588e+00   6.8594116e-01
  7.1013923e+00   2.3167332e-01
  4.6189466e+00   6.1004329e-01
  3.8804257e-01   2.1608820e-02
 -1.3864068e+00   5.6601417e-01
 -5.6086378e+00   3.6262736e-02
  3.5035837e-01   2.3694816e-01
 -5.0486827e+00   1.6751215e-01
  5.6588397e+00   1.2502070e-01
 -3.2326348e+00   3.6915582e-01
  7.7425137e+00   6.8270355e-02
 -1.4220560e-01   6.2812880e-02
  1.0226276e+00   4.6606627e-01
  3.6645716e-01   1.3096614e-01
  4.7408981e+00   1.1563885e-01
  4.9275141e+00   2.8554431e-01
 -2.3264627e+00   1.8589566e-02
 -1.3618016e+00   2.0281708e-02
 -9.5508665e-02   6.1203912e-03
  1.4335537e+00   5.2930634e-03
  1.0500134e+00   1.0145370e-02
  2.9813427e-01   1.7944366e-02
  5.7703859e-01   7.2127461e-02
 -2.8419070e+00   5.9111309e-03
 -2.9120784e+00   3.0558962e-02
  2.7465420e+00   5.8437284e-02
 -1.0778085e+00   4.8223164e-02
  1.5375744e+00   1.2414981e-01
  1.2291919e+00   7.8217015e-02
 -1.5003992e+00   1.4348707e-02
 -7.1122009e-01   1.1638051e-01
  4.2818804e+00   4.8362460e-02
 -1.0927253e+00   1.7051512e-02
 -2.1360610e+00   4.4864465e-02
  8.2277805e-01   3.2460172e-02
  1.0165070e+00   1.3742037e-02
  2.3071486e-01   3.3463541e-02
 -8.1843150e-01   1.2951004e-02
 -1.5443771e+00   3.1685527e-02
  2.3621674e+00   6.0526062e-02
  3.8924634e+00   2.4131309e-02
 -4.2523041e+00   1.0519924e-02
 -9.7600734e-01   6.4625084e-02
  1.1499391e+00   3.1288426e-02
 -3.1458899e-01   5.2178614e-02
 -3.3198006e+00   4.8553433e-02
 -5.1293240e+00   1.5410297e-01
 -4.9045658e+00   4.1564681e-02
  1.5507612e+00   8.4487818e-02
 -1.7765576e-01   3.7349805e-02
  6.1313045e-01   1.1289116e-02
  1.3416921e+00   5.3847980e-02
 -5.9102315e-01   1.4208013e-02
 -9.3027729e-01   1.9466951e-02
 -2.4151230e+00   5.9209779e-02
  2.8834202e+00   3.7045732e-02
  5.3436202e-01   3.1055188e-02
  1.3931434e-01   4.4314414e-02
 -1.2610502e+00   3.4053404e-02
  4.5418516e-01   6.0557048e-03
  2.0124621e+00   6.1505064e-02
 -2.4405608e+00   4.6850264e-02
 -3.4120209e+00   2.8456913e-02
 -5.5397615e+00   2.6637197e-01
  3.2580855e+00   3.5759252e-02
  4.0367866e+00   2.1458216e-01
  4.1823545e-01   4.4381272e-02
  2.5747974e+00   1.0991891e-01
  2.8117082e+00   8.0581874e-02
 -1.1532999e+00   1.0209966e-01
 -1.0531739e+01   2.0769168e-01
  4.4820666e+00   1.4125124e-01
 -1.4845158e+00   1.2996799e-01
  1.8013433e+00   4.9479717e-01
 -6.0208039e+00   1.8755871e-01
  2.7715847e+00   3.5913381e-01
  4.0274063e-01   1.3577832e-01
  1.1858466e+00   1.2936665e-01
  7.5918061e-01   6.4319797e-02
 -6.8068662e+00   1.8770385e-01
 -4.5612826e+00   2.7635443e-01
  1.2891103e+00   4.6422217e-02
 -1.3721143e+00   9.1734886e-02
  1.5341622e+00   4.1256562e-02
  2.0319898e-01   1.2177041e-01
  7.8117520e-02   8.5984968e-02
  3.5122330e+00   5.4857904e-01
  1.4310047e+01   3.0892330e-01
 -4.2640811e-01   8.7406166e-02
 -1.0270964e+01   4.7540642e-02
 -5.5739627e+00   1.0342315e-01
  8.2097178e+00   1.0055366e-01
  7.6555036e-02   1.1841609e-01
 -6.6163487e+00   1.7324474e-01
  4.8937645e+00   9.6384495e-02
 -1.5927078e+00   7.2991565e-02
 -3.4375432e+00   5.7158202e-02
  1.5580310e+00   1.0949833e-01
 -2.2063107e+00   1.2400813e-01
 -1.3610344e+00   3.1009678e-02
  1.6729898e+00   8.4696956e-02
 -2.8948541e+00   6.8669222e-02
 -5.7461100e+00   1.3639811e-01
  3.3240433e+00   1.6732205e-01
 -1.6226648e+00   5.2254163e-02
 -9.5293933e-01   1.6326112e-01
  1.6192058e-01   2.9611084e-01
 -5.3109264e+00   1.1412573e-01
  3.6525762e+00   8.0404408e-02
 -7.9403424e-01   9.7494023e-03
 -4.6518463e-01   4.0953975e-02
  4.1316791e+00   5.6954820e-02
  1.9542593e+00   6.0141161e-02
  3.5047448e+00   9.1079578e-02
 -1.6893733e+00   6.3996896e-02
  7.4507418e+00   1.5049352e-01
  2.4704311e+00   4.2693738e-02
  1.1664705e+00   8.3532542e-02
 -8.7402016e-01   6.6066809e-02
 -2.2278516e+00   3.6091995e-01
  2.9839087e+00   1.8625811e-02
  2.9974597e+00   1.4320301e-01
  2.0214853e+00   9.4386712e-02
  1.2915949e+00   1.9763432e-02
 -4.0768118e+00   1.0807259e-01
  2.9892918e-01   4.5793857e-02
  3.9657798e-01   3.3360709e-02
 -6.7715091e-01   1.7590040e-02
  3.2354181e+00   6.4280576e-01
 -4.3935609e+00   7.1285628e-02
  1.9669520e+00   2.3883417e-01
  1.2133744e+00   4.3857671e-02
  1.1017228e+00   7.2087057e-02
 -7.0828915e+00   2.0805100e-02
  3.0868840e+00   4.0268317e-02
  4.9045057e+00   2.3233137e-01
  4.8983579e+00   1.2785085e-01
  1.2868392e+00   1.0686673e-01
 -3.1953415e-01   2.4808457e-02
  5.1702161e+00   2.2600462e-01
 -9.2360556e-01   6.0326371e-02
 -4.0559393e-01   2.9860854e-01
  8.1740856e-01   1.3583233e-02
  6.3178092e-01   2.7286425e-02
 -5.7246524e-01   2.7774987e-01
  3.3603158e+00   6.8969131e-02
  3.3350556e+00   1.1009482e-01
 -1.2853038e+00   7.6481804e-02
 -8.3912153e+00   1.5090720e-01
  9.4358892e+00   9.5235787e-02
  9.3488729e-01   2.4919842e-01
 -1.6597122e+00   2.7280303e-02
 -3.3472577e-01   1.1823656e-01
 -1.3885294e+00   9.2496321e-02
 -8.9784682e-01   4.0954202e-02
  1.0378898e+01   5.5371869e-02
  1.9470927e+00   5.1211435e-02
  4.2959728e+00   1.1328723e-01
  6.1496842e-01   3.0259179e-02
  1.8979988e-01   2.6950495e-02
  4.0174842e+00   1.6921416e-01
 -6.5128179e+00   6.4005077e-02
 -1.6387453e-02   1.3512917e-01
 -5.3831607e-01   7.3025934e-02
  2.4674225e+00   2.8536043e-01
 -1.0269496e+00   1.2090417e-01
 -2.5526600e+00   2.3788616e-01
 -1.5402076e+00   4.3514032e-02
 -6.6368479e-01   5.7009812e-02
 -3.0305326e+00   1.4742377e-01
  7.3463231e-01   3.3529580e-02
  1.4305408e+00   2.4296330e-02
  1.9868990e+00   1.5776227e-01
 -1.1143105e+00   4.1061316e-02
  4.3239079e+00   5.7030711e-02
 -3.7922025e-01   4.0922742e-02
  1.9224981e+00   9.8802984e-02
 -2.8400018e+00   2.6121318e-02
 -8.6315136e+00   3.2766014e-01
  3.6484125e-01   7.2997719e-02
  2.5704205e+00   1.2106045e-01
 -2.9546711e+00   9.4398022e-02
 -1.6277976e+00   1.6331607e-02
 -2.4627905e+00   1.2742520e-02
 -2.3664203e+00   3.1369440e-02
  6.7113333e+00   1.2770109e-01
 -6.5535158e-01   7.3247522e-02
  2.9921844e+00   6.2262014e-02
 -5.4790306e+00   7.3355995e-02
 -6.6296446e-01   4.7673915e-02
  4.9210610e+00   2.0480216e-01
 -4.8191032e+00   1.0102083e-01
 -4.4263229e+00   5.0171517e-02
 -1.7978395e+00   3.7950286e-01
 -5.8436670e+00   1.1000140e-01
  1.9842116e+00   1.1668801e-01
  4.8381114e-01   9.4154626e-03
  3.5786426e+00   4.2003214e-02
 -1.0655911e+00   1.8469902e-02
  1.2536012e+00   5.5409428e-03
 -1.3137004e-01   5.3843446e-03
  3.2760217e+00   1.1504090e-02
 -8.2100040e-01   1.5868021e-02
 -1.3619514e+00   1.1547077e-02
  1.3919910e+00   1.0652033e-02
  2.8054395e-01   8.2114935e-02
  1.4872910e+00   5.0674006e-02
 -2.7427332e+00   8.4788278e-02
  4.6454000e+00   3.3867072e-02
 -3.5347593e+00   1.6721042e-01
 -1.3153231e+00   1.2216099e-01
  6.4728718e+00   4.4579551e-02
 -2.0505671e-01   2.0040758e-02
 -4.6647496e+00   2.7751938e-02
  1.6484636e-01   4.0642109e-02
  1.1828507e+00   3.2799758e-02
 -2.7745779e+00   1.3679494e-01
 -6.9457235e+00   3.8151056e-02
 -1.1208607e+00   1.2148503e-01
  8.1777611e+00   5.5822708e-02
  1.0297083e-01   3.6951855e-02
  6.1310118e-01   3.3346262e-02
  1.5336363e+00   3.3033054e-02
 -1.7764328e+00   1.4094260e-01
 -2.9389014e+00   9.6080422e-02
  2.8107886e+00   1.4041111e-01
 -1.2523102e+00   4.3346517e-02
  2.0098722e+00   2.3811942e-02
  5.3411298e+00   3.9792210e-02
  1.3435839e+00   7.4091889e-02
 -3.2810158e-01   6.8123490e-02
 -5.0337166e-03   9.7928159e-03
  8.1753677e-01   2.2727171e-02
  1.2383093e+00   2.5147395e-02
  2.3721511e+00   5.5100027e-02
  1.4846157e+00   8.2428485e-02
 -1.2206696e+00   2.4767078e-02
  5.0497717e-01   4.1845031e-02
  2.9851813e+00   4.0903237e-02
 -5.5258602e-01   3.9197665e-02
 -1.4969987e+00   2.5707390e-02
 -2.2099808e-01   3.3423368e-02
  2.8213644e+00   4.2771753e-02
 -3.2001038e+00   3.9784659e-02
 -4.6777743e-01   1.1204450e-02
 -9.1901886e-01   7.8825764e-03
  3.3680243e+00   2.8088570e-02
 -2.0205460e+00   1.0331604e-02
 -1.8160151e+00   1.9453611e-02
  9.2869222e-01   9.9209370e-03
 -8.0181351e+00   7.6095626e-02
 -3.2491319e+00   8.9179620e-02
 -5.4166567e-01   2.7271414e-01
  2.7645020e+00   2.6482081e-01
 -1.9944325e-01   9.8725088e-02
 -2.4564295e+00   7.6544710e-02
 -4.1333300e-01   4.4137113e-02
 -1.0637864e+00   5.5435374e-02
  2.8975344e+00   4.6120733e-02
  1.9892206e+00   2.8891718e-02
  6.0433459e+00   9.3427658e-02
  2.5658109e+00   1.2943581e-01
  2.9537034e+00   7.8404494e-02
 -4.9152723e-01   1.0104694e-02
  8.3578062e+00   1.0369625e-01
 -1.9687556e+00   6.9542080e-02
  2.9267970e-01   3.6447387e-02
  1.9476312e+00   2.4713609e-02
 -7.9761255e-01   8.6981155e-02
 -1.5356827e+00   6.6357188e-02
  2.9139512e+00   3.3088420e-02
  1.1274643e+00   2.8831476e-01
  7.1303663e+00   7.4047893e-02
 -1.9838337e+00   8.8035293e-02
 -1.1409115e+00   1.5324166e-01
 -1.6426861e+00   6.6230692e-02
 -1.9610767e+00   4.7367278e-02
  1.6454735e-01   5.8618139e-02
  2.3984053e+00   1.0695086e-01
  5.5605572e-01   7.7118985e-02
 -3.9746962e+00   1.1563658e-01
 -2.5750844e+00   1.8169122e-02
 -4.1626515e+00   2.2527890e-01
  8.5911363e-01   1.7388077e-02
  9.4785786e-01   4.4542369e-02
  2.1634519e+00   3.6952376e-02
 -2.8178685e+00   2.6305744e-01
 -4.5077372e-01   6.8163522e-02
  4.3916914e-01   1.1605623e-01
  3.1464181e+00   2.2807648e-02
  3.2452996e+00   1.5590869e-01
 -5.8982553e+00   2.2881156e-01
  6.2641139e+00   2.6324692e-01
 -1.3502191e+00   2.6447120e-01
 -9.4582289e-01   7.2135836e-02
  1.0788993e+00   4.2195088e-01
 -2.6708720e+00   6.6138729e-02
  5.3362169e+00   4.5056012e-01
 -3.8652625e+00   1.0523672e-01
 -6.0478597e+00   2.0666631e-01
 -1.4509792e+00   1.0971168e-01
 -4.4766707e+00   2.5128591e-01
 -8.7831742e-01   2.1286789e-02
 -9.9861422e+00   2.7356589e-01
 -9.7339904e-01   1.0370883e-01
 -3.8805151e+00   2.9498962e-01
  7.7892103e+00   2.2788721e-01
 -6.3839436e+00   1.1384259e-01
 -2.1567702e-01   7.3531829e-02
  1.3203573e+00   1.7375346e-02
  4.1746327e-01   2.6389781e-01
 -3.8438374e-01   6.1212379e-02
  1.3231062e+00   9.5575854e-02
  9.2543310e-01   1.2236719e-01
 -5.9677553e+00   1.0962195e-01
  5.3389406e+00   1.4409818e-01
  3.5606561e+00   7.0792779e-02
 -5.6024241e+00   8.0930889e-02
 -4.3258539e-01   8.0534972e-02
  5.8412943e+00   1.3433589e-01
  2.9410906e+00   2.8428800e-02
  3.9399142e+00   6.8284109e-02
  3.5842407e+00   8.5266076e-02
  7.4012685e-01   1.4055179e-02
 -7.4082065e-01   1.5972404e-01
  2.1725452e+00   1.5763205e-01
 -5.7093573e+00   4.3630424e-01
  8.3472395e+00   9.7204946e-02
  5.8212772e-02   8.1378020e-02
 -1.9617736e+00   8.1334926e-02
  2.1778724e+00   1.6401923e-01
  3.6018452e-01   3.2128315e-02
 -2.1526690e+00   3.2624170e-02
 -6.6407114e-01   8.0353752e-02
 -2.0901747e-01   2.0451115e-02
 -1.1640600e+00   1.4543786e-02
  2.2362512e-01   1.8394828e-02
  3.3658605e+00   6.3654273e-03
  3.6966038e+00   2.0406255e-02
  4.5958290e-01   2.5684951e-02
  1.1540346e+00   5.2727867e-02
 -7.3483081e+00   1.8750037e-01
  2.2798209e+00   8.1036519e-03
 -6.1049137e+00   5.8184260e-01
  3.0730739e+00   1.7646603e-01
  2.7371445e-01   3.6675010e-02
 -5.6571402e-03   1.4768432e-01
  1.0642272e+00   9.2994720e-02
 -2.8777165e+00   1.2095926e-01
 -2.1333754e+00   3.9476164e-02
 -1.1625316e+00   6.6756219e-02
  1.1236074e+00   1.0187822e-02
  1.7005322e+00   3.1044196e-02
 -9.8887235e-01   2.1859922e-01
 -1.0257733e+01   1.9862640e-01
 -9.2682052e-01   6.0747050e-02
  3.3123672e-01   1.6110968e-02
  1.1759943e+00   1.6175371e-02
 -4.3663187e+00   7.6268986e-02
  3.0555978e+00   9.1399267e-02
 -8.9932365e+00   1.4736076e-01
 -2.7198861e+00   1.3630219e-01
  3.9850938e+00   2.1522117e-01
  1.0053030e+00   2.6286310e-02
  4.9977323e-01   1.8610516e-01
 -2.0834229e+00   1.5933657e-01
  5.2766442e-01   1.3435873e-01
  1.2570955e+00   3.3233531e-02
  4.3537726e+00   6.5438136e-02
 -3.2959034e+00   5.2900612e-02
 -1.1271593e+01   1.0114226e-01
 -4.5162219e-01   4.9501669e-02
  2.5888758e+00   1.1486788e-01
  1.4433390e+00   5.5022426e-02
 -1.2383469e-01   3.2257374e-02
  1.6152055e+00   3.2764744e-02
 -9.4091743e-01   2.4130917e-03
  2.3841728e-01   6.6372138e-03
  1.0569540e+00   2.5598626e-03
  6.3259530e-01   1.4130574e-03
 -7.4102396e-01   1.3342608e-03
  1.0156101e+00   3.6876979e-03
 -2.4286678e+00   3.1450861e-03
 -1.3252550e-01   3.4760537e-03
  5.4521608e-01   2.7494631e-03
 -3.8095242e-01   3.0828031e-02
  1.7618356e+00   1.4190313e-02
 -7.0493579e-01   1.5267421e-02
 -1.2640854e+00   4.1607603e-02
 -1.2378856e+00   1.8246047e-02
  8.1783247e-01   3.4663625e-02
  3.8825731e+00   7.9889698e-03
  1.3836578e+00   1.0815315e-02
 -3.1161127e+00   1.5013115e-02
 -8.4724009e-01   1.2230188e-02
  8.3597559e-01   7.8963498e-03
 -3.9167130e-01   1.3114457e-02
 -5.0606924e-01   2.1952100e-02
 -1.7881941e+00   1.7161380e-02
  3.9797121e-01   6.9116442e-03
 -9.0952033e-01   1.6302122e-02
 -7.7977920e-01   4.1131149e-03
  1.7031419e+00   6.1848508e-03
  2.0614536e+00   1.7497687e-02
 -1.6474476e+00   1.7107096e-02
 -4.5262426e-01   2.1788621e-02
 -8.6557877e-01   1.1978957e-02
  6.6113108e-01   6.3049793e-03
  1.5308670e+00   2.4179971e-02
 -4.6316428e+00   1.0327259e-02
 -1.2704270e+00   1.8450307e-02
  1.4264172e+00   5.9066555e-03
 -7.6321489e-01   8.3269374e-03
  1.3015882e+00   6.4153983e-03
 -9.1860749e-02   6.8858727e-03
 -1.3396825e+00   1.2333243e-02
  2.5404090e-01   7.8513371e-03
  1.8869904e-01   9.4937207e-03
 -1.8430588e+00   4.3710605e-03
  1.3384172e+00   6.6357432e-03
 -2.5099698e-01   7.0530828e-03
 -2.5789688e+00   1.1459517e-01
 -2.3722523e-01   2.4887592e-01
 -3.3196625e-01   1.3345458e-01
 -5.3036227e+00   2.4416847e-02
 -1.5166029e+00   5.2269876e-02
 -7.8085953e-01   2.3351688e-02
 -3.0554421e+00   1.0492223e-01
  5.9529281e+00   1.0857718e-01
 -5.2554145e+00   4.6327870e-02
 -1.0910320e-01   3.7293024e-02
  7.9036975e-01   1.0494591e-01
 -6.9912095e+00   1.2969965e-01
 -4.9513081e-01   2.3409562e-02
 -4.3099129e-01   1.3054897e-01
 -1.3037277e+00   1.0149924e-01
  2.2507339e+00   1.1952560e-01
 -2.5995913e+00   6.4418554e-02
  3.5620165e+00   1.4977635e-01
 -7.0703526e+00   1.1232538e-01
 -8.3538365e-01   2.2629808e-01
  1.9429314e+00   1.5573169e-02
  1.0316414e+00   1.0344302e-01
 -6.6162013e-03   3.6504697e-02
 -3.8766427e+00   1.2209268e-01
 -8.6993380e+00   1.1746475e-01
 -2.8821068e+00   2.1788828e-01
 -2.9258618e+00   3.9004445e-02
  1.4796313e+00   2.0048192e-01
  6.0522251e+00   5.6286838e-02
 -1.2409700e+00   1.6080409e-01
 -2.1046576e-01   1.5365130e-01
 -2.6473053e+00   1.0110652e-01
  4.9588189e-01   2.4645746e-01
 -4.5726323e+00   3.2596093e-02
  1.2040741e+00   3.5678532e-02
  4.4169049e+00   1.1541933e-01
 -1.9127752e+00   1.7461312e-01