 -3.3579936e+00   1.0130695e-01
 -2.7111304e+00   7.6391667e-02
  1.4502231e+00   1.6505229e-01
 -1.7650174e-01   1.1293636e-01
 -2.0579908e+00   8.1190661e-02
  3.4204416e+00   8.8346809e-02
  1.2382524e+00   2.4416819e-02
  3.1722231e+00   5.0917931e-02
  7.0586419e+00   1.6514179e-01
  2.9926822e-01   6.6484481e-01
 -1.4369498e+00   5.4084145e-02
  1.2415336e-01   8.7918580e-02
  1.1512593e+01   5.4870002e-02
  2.3607726e+00   1.4206322e-02
  3.7915976e+00   7.8610815e-02
 -6.1664734e+00   3.2167372e-01
 -9.9186414e-01   1.5635477e-02
  3.2003641e+00   1.0649390e-01
  2.3563111e+00   1.1594123e-01
 -2.3223836e+00   1.5391836e-02
  1.2298641e+00   4.6354958e-01
 -2.3021619e+00   1.4132974e-01
  5.8051820e+00   2.2042766e-01
 -3.7213328e+00   2.3614022e-01
  1.3492627e-01   3.0700082e-01
  2.2329155e-01   1.4812578e-01
  3.1941609e+00   2.3316641e-01
  3.9723938e+00   1.0861645e-02
  1.1467328e+01   4.1555873e-01
  2.7206798e+00   4.4166066e-02
 -2.7665186e-01   5.1069085e-02
 -3.3601623e+00   2.0359428e-01
 -2.1924255e+00   6.1329313e-02
  2.3407421e+00   9.8523235e-01
  5.1881266e+00   2.0334521e-02
  2.0657654e-01   9.4832800e-02
  1.3128911e+00   7.6119840e-02
 -1.5743943e+00   1.9855011e-02
  8.5146036e+00   2.3092959e-02
 -1.6070811e+00   3.7978265e-02
  1.6205105e+00   3.9854705e-01
 -9.7196274e-02   3.8888484e-01
  4.0389192e-01   5.0123326e-02
 -9.7484857e-01   8.2561344e-02
  6.2412423e-01   1.6824354e-01
 -4.9731812e-01   1.3369073e-01
  3.5841608e-01   6.5099783e-02
  1.9686791e+00   5.4672476e-02
 -2.5336799e-01   1.0397149e-01
  3.1962202e+00   3.4579191e-02
  2.4406394e-02   1.4203735e-01
 -3.9286196e+00   1.5885268e-01
  3.6953845e+00   1.5915330e-01
 -4.0532293e+00   1.0755251e-01
  1.3477831e+00   1.9582024e-01
 -6.5625019e+00   1.8915255e-01
  5.0590110e-01   1.1807130e-02
  2.0003960e-01   2.4301325e-01
  2.2567003e+00   1.0609435e-01
 -5.5981746e+00   1.2936752e-01
 -3.8631697e+00   4.2907760e-02
 -1.8243101e+00   1.3896357e-01
 -4.1261110e+00   1.6069297e-01
 -4.2816834e+00   3.2379529e-01
  9.0487158e-01   7.8732245e-02
 -7.1227896e-01   2.4730729e-01
  8.8520539e-01   4.7945559e-02
 -1.5284417e+00   3.3819908e-01
 -7.4029082e-01   5.9710748e-02
  3.4819558e-01   2.7192755e-02
 -1.4039035e+00   8.6228490e-02
 -5.0714021e+00   1.1655469e-01
  1.9782606e+00   3.2481369e-02
 -7.8761415e+00   2.6177463e-01
 -7.3867059e+00   9.8385595e-02
 -3.3979917e-01   2.9801619e-01
  8.3863193e-01   9.8042272e-02
 -2.9588056e+00   3.6782631e-01
 -1.2195858e+00   5.9861428e-01
 -2.2218095e-01   4.4030584e-02
 -2.6742501e+00   3.4825634e-02
  3.9151654e+00   4.1124690e-02
 -9.0454149e-01   2.4713751e-02
  1.4581447e+00   2.2582944e-01
 -7.2524768e-01   8.4027901e-02
  3.1382477e+00   3.7706014e-02
  5.6324754e+00   2.9388368e-01
 -4.2334342e+00   2.9095799e-01
 -1.0908653e+00   7.8997351e-03
 -2.5018811e+00   5.7194513e-01
  4.8805523e+00   7.7951886e-02
  1.0514143e+00   2.1885873e-01
  4.2358470e+00   9.8310389e-02
 -5.9346838e+00   5.3508122e-02
 -2.1285574e-01   1.8956270e-02
 -4.8671193e+00   2.6587215e-01
  3.0667214e+00   1.0421308e-01
 -1.0868987e+00   3.0357854e-02
  4.3817699e-02   6.6329107e-02
 -5.4352589e+00   4.3734857e-01
 -2.5332899e+00   1.7234828e-02
 -6.8833388e-02   1.5329437e-01
  2.0489836e+00   5.9003246e-01
  1.9522697e+00   6.8811640e-02
 -3.9920965e-01   4.5997086e-01
 -4.7763419e+00   2.2784159e-02
 -1.2217265e+00   9.6665889e-01
  8.1933804e-02   1.9677396e-01
 -1.0896531e+00   2.0782308e-01
  3.3984001e+00   4.4801980e-02
 -2.3529475e+00   4.7100556e-01
  2.6130979e+00   7.0467508e-01
  3.3103311e+00   4.5604791e-02
 -4.5196157e+00   7.4455485e-02
  3.9830232e+00   1.0060564e-01
  2.4623640e+00   9.7232796e-02
 -3.8168469e-01   4.3431118e-02
  7.1824729e-01   7.8478980e-01
 -2.1345651e+00   3.9659429e-02
 -1.7804047e+00   9.4312239e-01
 -1.5187193e+00   3.5607639e-01
 -1.6760794e+00   4.8823661e-01
 -5.0838251e+00   6.0193460e-02
 -5.5002338e-01   2.4954466e-02
 -2.0993102e+00   2.4947657e-01
  2.6017523e+00   1.2408677e-02
 -3.1337118e-01   3.8645610e-02
  5.7065183e-01   7.6957464e-02
  2.1314642e+00   1.7331992e-01
  2.7673905e+00   1.0905041e-01
  4.8077016e+00   5.9604179e-02
 -3.0226839e+00   3.2874074e-02
  8.1390297e-01   2.0612741e-01
  2.1603162e+00   6.7187459e-03
 -1.2947270e+00   3.5775874e-02
 -2.7734547e+00   1.2189391e-01
  6.3101249e+00   4.4040394e-01
 -9.4197720e-01   9.5077813e-02
  5.4283819e+00   8.2671106e-02
 -4.2752795e+00   6.2876637e-03
  1.5259247e+00   9.7974595e-03
 -8.6124904e-02   1.5515435e-02
 -2.8773746e-01   1.2119256e-02
 -1.0888473e+00   1.8197700e-02
 -8.3271933e-01   2.6212361e-01
 -3.9796598e+00   1.5139025e-01
 -2.4381974e+00   3.7694052e-02
  4.1627431e-01   2.0954302e-01
 -2.5453374e+00   3.8625363e-01
 -1.2219682e+00   1.3297724e-02
 -1.1760486e+00   8.8094532e-01
  1.6431519e+00   4.5518119e-02
  9.6525371e-02   1.1096667e-01
  1.4901509e+00   2.2188653e-01
  5.3278260e+00   5.4586422e-02
 -1.8837725e+00   1.5993392e-02
 -1.7321737e+00   4.4686742e-02
  3.4143522e+00   2.1393348e-01
 -1.4993507e+00   1.4561751e-01
  1.5277489e+00   9.6168809e-02
  4.8295350e+00   1.2410603e-01
  3.6471946e+00   5.4740760e-02
 -4.7455492e+00   8.3240300e-02
 -3.8257270e+00   5.7947367e-01
  1.2040629e+00   1.2704447e-01
  6.2989941e+00   2.9455948e-01
  1.5366728e+00   2.7472317e-01
  2.1423283e+00   6.5777645e-02
 -2.6008666e+00   2.3109466e-02
  3.0457194e+00   9.4565913e-02
  1.1589626e+00   1.3211022e-02
  1.2773199e+00   2.6867467e-01
  4.1932087e+00   5.5458073e-02
 -1.5137249e+00   3.7680041e-02
  1.7656713e-03   2.6269993e-02
 -1.4598994e+00   4.2874631e-01
 -1.2649535e+00   3.1875566e-02
  5.9593487e+00   1.1015943e-01
 -4.9698610e+00   3.4647990e-02
  3.3917513e+00   1.9820862e-01
 -6.5216074e+00   7.2479688e-02
  1.5806552e+00   1.5565348e-01
 -6.1087351e+00   1.3679825e-01
  2.4213037e+00   9.8812476e-02
 -2.3921742e+00   5.5730004e-02
  3.4947605e+00   8.7072514e-02
 -2.2932632e+00   3.0064726e-02
 -1.3575883e+00   1.7034290e-02
 -1.8824921e+00   1.6657418e-02
 -4.7913356e+00   1.9704926e-01
 -1.0387266e+00   6.8065776e-03
  3.2328813e+00   8.5413940e-02
 -1.1516533e+00   1.3118531e-02
 -3.0611725e+00   5.0945509e-02
 -1.2476592e+00   1.6491288e-01
 -4.2342291e+00   6.0444301e-01
 -2.5924683e+00   2.8898787e-02
  1.4542487e+00   6.1561201e-02
  6.5101428e+00   9.7597405e-02
 -6.1201534e+00   9.0725109e-02
  2.8258662e+00   3.1022376e-01
 -5.9652667e+00   6.8914980e-02
  8.0515318e+00   1.0274404e-01
  4.5406060e+00   7.0335940e-02
  2.3611393e+00   1.9479489e-01
  3.0456843e+00   1.3874076e-01
 -9.4881779e-01   2.2596734e-02
 -1.6971083e+00   4.6803904e-01
  2.4101305e+00   4.2336711e-01
  4.8195824e-02   8.9364551e-02
 -2.8351858e+00   2.3788373e-01
  1.2651358e+00   1.2272215e-01
  9.0988264e+00   2.8142664e-01
 -8.7937337e-01   1.1608103e-02
 -3.6873696e+00   6.0846623e-02
 -4.3161559e+00   7.5049825e-02
 -1.8931118e+00   5.2159999e-02
  4.4634265e-01   8.4317043e-02
 -5.0899434e+00   4.3224338e-02
  1.9610016e+00   1.2628725e-01
 -1.6686418e+00   1.2530270e-01
  1.6996849e+00   1.2358927e-01
 -1.1662992e+01   1.7018864e-01
  9.9325675e-01   1.4602848e-02
  1.0881457e-01   1.4533728e-01
 -2.6032335e-01   3.1797653e-01
  3.2099173e+00   3.1937355e-01
  2.8438375e+00   9.9967346e-02
 -1.6336764e+00   2.6018143e-02
 -2.5056360e+00   6.8497546e-02
  4.8667765e+00   1.1700512e-01
  3.9373112e+00   2.8697746e-02
 -1.3114518e+00   1.1187436e-02
 -1.2159282e+00   6.4851505e-01
 -7.2188296e+00   1.3319127e-01
  1.8709054e+00   5.1748995e-02
  3.3924932e+00   8.9282991e-04
  3.6013284e-01   2.4169026e-01
  3.1005778e+00   8.6889327e-02
  7.7976429e-01   5.4086208e-02
 -2.3349624e+00   1.3564602e-02
  6.0756187e+00   1.0179614e-01
 -3.0813525e+00   1.9665400e-02
 -2.6596236e-01   1.4244477e-01
  1.9195542e+00   5.2255135e-02
  3.2205743e-01   4.7475621e-02
  1.8115867e+00   2.0695019e-01
  6.3506252e-01   1.0870619e-01
 -1.8409051e+00   9.2728086e-02
  1.2759322e+00   2.2706702e-01
 -6.5921980e-01   1.1204488e-01
  6.7493658e+00   3.3390519e-01
  1.7460419e-01   2.4714927e-01
 -5.7440150e-01   1.2790561e-02
 -2.7915137e+00   4.3143255e-01
 -1.3774074e+00   6.3313641e-02
 -1.4025892e+00   3.5541239e-01
  1.7656995e+00   5.7992335e-02
  6.0667801e-01   2.8327569e-01
  8.2611495e-01   2.4380894e-02
 -2.6593776e+00   1.0427313e-01
 -5.2175813e+00   8.7836325e-02
 -2.5946791e+00   7.2354570e-02
  2.0879803e+00   3.3397108e-01
  1.2460992e+00   8.1347048e-01
  4.2908278e+00   8.9145146e-02
  6.2903285e-01   2.1482086e-02
 -7.9417877e-02   1.6133741e-01
  6.2775552e-01   3.2389241e-01
 -2.4245846e+00   4.8420370e-02
 -1.1815113e+00   3.2709379e-02
 -2.0412539e-01   4.5734599e-01
  3.7091143e+00   3.1596658e-01
  1.4533238e-01   1.0787231e-01
 -1.3659939e-01   5.8736242e-02
  1.5661487e-01   6.3418679e-02
  4.7225311e-01   3.4894209e-02
  1.6707355e+00   9.4081894e-02
 -1.2926742e+00   1.8990022e-01
  1.1274157e+00   3.8170579e-01
 -2.6638892e-01   6.2773073e-01
 -2.0506597e+00   1.0515181e+00
  1.9520711e+00   2.5120705e-02
 -3.9261351e+00   1.8290785e-01
  8.1996721e-01   5.8117555e-03
  4.6854172e+00   1.0296265e-01
  8.8414103e-01   1.6554938e-01
  1.6083033e+00   2.5331640e-01
 -3.4845725e-01   3.5330179e-01
  1.4770508e+00   2.9873011e-01
  1.1508743e+00   1.3696590e-01
  2.2286445e-01   9.1952354e-02
 -1.0049678e+01   8.5727245e-02
  5.2122855e+00   2.7049268e-02
 -7.8191978e-01   6.5200469e-03
  1.8648518e+00   1.6026760e-02
  1.7896777e+00   1.1403301e-01
 -3.1740618e-01   1.4055811e-01
 -1.0757169e+00   1.0395323e-01
  1.7761886e-01   3.8623369e-01
 -5.2046766e+00   1.6139126e+00
  2.2796085e-01   1.1698670e-02
 -2.2953658e+00   1.6131023e-01
  9.5524607e+00   3.0325027e-02
 -6.5056133e+00   4.3827155e-01
 -1.3565582e-01   6.6163875e-02
 -4.6157125e-01   5.7060397e-03
 -8.4204119e-01   3.7214603e-02
  6.4485751e-02   5.8073472e-02
  5.4370046e+00   2.0573016e-01
  4.7430615e+00   5.8829206e-01
  3.9646704e+00   2.7837577e-01
  1.5185616e+00   3.3228118e-02
  2.5571737e-01   6.4836569e-02
 -2.1801760e+00   1.5961716e-01
  2.7278965e+00   2.9823126e-02
 -5.6119591e-01   1.1096530e-01
  2.3350930e+00   3.4658726e-02
 -6.7657456e+00   1.3979463e-01
 -1.4056026e+00   2.6559031e-02
  3.6333165e+00   1.5906064e-01
  2.6855705e+00   5.5031949e-01
  2.4983387e+00   3.0442607e-01
  7.7668601e-01   8.7850578e-02
  1.1946448e+00   1.5644675e-01
 -4.2920127e+00   7.0901647e-02
 -9.4482258e-02   1.4785446e-01
  1.0547527e+00   1.4367814e-01
  2.5404594e+00   7.2338112e-02
  2.5965014e+00   8.6023375e-02
 -3.6774972e-01   6.3056864e-02
 -4.1462607e+00   8.1604593e-02
 -3.8881104e+00   1.5758292e-01
  8.0202520e-01   6.3097700e-03
  2.9347441e+00   1.3315041e-01
 -3.2760360e+00   5.0606275e-01
  1.6974808e+00   3.8280332e-01
 -5.0076532e+00   1.6012460e-02
 -2.2418849e+00   1.3479921e-01
  2.4301596e+00   1.9814454e-01
 -5.6009240e+00   7.0689157e-02
 -3.8646257e-01   2.7578110e-02
  1.4898180e+00   2.8766956e-02
 -2.0670435e+00   3.8052287e-02
  3.3445022e+00   2.0369243e-02
 -6.4625627e-01   4.4908125e-02
 -1.2109947e-01   5.0007230e-01
  1.3195882e+01   1.0484923e-01
  2.4900184e+00   6.3405377e-01
  8.7894529e-01   6.2598586e-02
 -2.8250556e+00   1.0454508e-02
  4.9083247e+00   1.6936481e-01
 -4.5788191e-02   9.0168364e-02
  3.4875131e+00   6.2294479e-02
  6.5892725e+00   1.9407831e-01
  8.1831856e+00   6.1726350e-02
 -3.2986009e+00   2.3460932e-01
  1.5618294e-01   6.6953294e-02
  1.2804044e+00   8.4059931e-02
 -8.7182659e-01   6.5834068e-02
 -5.7157340e+00   1.3685717e-01
 -4.9665672e-01   1.6683243e-01
 -2.2177784e+00   2.7299017e-01
  1.4739894e+00   9.5185690e-02
  5.4119217e-01   8.7588117e-02
  4.3447051e+00   7.8829408e-02
 -5.6219258e+00   2.7420968e-02
  1.6550523e-01   1.0858709e-01
  2.1456821e+00   1.3735127e-01
  9.8797679e-01   9.8754123e-02
 -3.3343270e+00   3.5257605e-01
  3.8339344e-01   3.8328335e-02
  3.2617588e+00   5.6186970e-02
  1.8608098e+00   3.4440786e-01
  2.2513077e+00   1.5249807e-01
  3.7005517e+00   3.9314297e-01
 -1.4318639e+00   5.8847856e-02
  5.5848968e-01   1.6171761e-01
  6.9474500e-01   2.0262183e-01
 -1.5823457e-01   6.2460285e-02
 -6.9363132e+00   5.5652272e-02
 -8.6005533e-01   6.7276270e-03
  2.2999768e+00   5.1634897e-02
  9.4043869e-01   3.6588274e-02
 -2.0503838e+00   2.7605556e-02
 -4.4650178e+00   8.6274236e-02
 -1.4358002e-01   1.9530524e-01
 -5.9451337e+00   1.6222800e-01
 -2.5075839e+00   5.0674763e-02
  7.0697589e+00   2.2102265e-01
  6.1727667e-01   8.6243677e-01
 -6.7780286e-01   3.7724558e-02
  7.3325026e-01   3.1334430e-01
  4.7351255e+00   9.9891084e-01
  1.9101299e+00   2.0570675e-02
  7.5345302e+00   5.6543816e-02
  1.2679437e+00   2.2335928e-02
 -2.6540380e+00   2.5496254e-02
  2.3378551e+00   4.0737100e-02
 -5.2576256e+00   5.4665154e-01
 -5.1133308e+00   1.0178930e-01
  2.3748090e+00   8.5394956e-02
 -8.3008289e-01   5.0228845e-02
  4.7753918e-01   5.0149299e-02
 -1.7878532e+00   7.6895557e-02
  4.6221776e+00   1.3734345e-01
 -4.0130639e-01   2.5415093e-01
 -1.9556129e+00   9.1175973e-02
  2.4048290e+00   4.6279009e-02
  4.5386687e-01   3.1103143e-02
 -1.6196120e+00   1.2520880e-02
 -8.1905012e+00   9.9952221e-02
  1.4857143e+00   5.6468364e-02
 -3.9507647e+00   1.1602050e-01
  9.3678957e-01   2.4831671e-02
  5.9068376e-01   2.6433831e-01
 -3.7373099e-01   1.5836076e-01
  1.7729903e+00   6.5015346e-02
  6.8415890e+00   2.1174159e-02
  5.6130844e-01   8.9913551e-03
 -6.0992050e-01   4.2503100e-02
  1.7648206e+00   1.4602003e-01
  2.3295796e+00   1.1919085e-02
 -7.0517778e-02   7.0667535e-02
 -9.5545284e-02   7.4235280e-03
  2.2911487e+00   1.7742379e-01
 -8.7021387e-01   2.4252942e-01
 -1.2769595e+00   2.5553541e-02
  2.3704588e+00   3.7634549e-01
  1.7545829e+00   5.5378165e-02
 -1.3171388e+00   2.0964354e-02
  1.6271956e+00   1.8309388e-01
  9.6724987e-01   2.4532609e-02
  2.7879565e+00   2.8194726e-02
 -7.6781833e-01   1.2722845e-01
 -3.4191257e-01   5.0259154e-02
  1.6763672e+00   3.9910220e-02
 -7.7731886e+00   8.7476701e-02
 -1.3045152e+00   8.0419920e-02
  8.5284241e-02   3.8527578e-02
  2.5346236e+00   2.2079259e-01
 -3.2252364e+00   5.7644457e-02
 -1.0500792e-01   1.4800377e-02
 -6.5539002e-01   6.1176900e-02
  4.4683437e+00   3.3337092e-01
  3.3432965e+00   9.5977329e-02
 -9.7728544e-01   5.0799612e-02
 -5.3637403e-01   3.6148328e-02
  2.0346794e+00   7.3840655e-02
 -7.7925911e+00   1.7272687e-01
  4.4682577e-01   1.8044312e-02
  3.1040025e+00   2.9660266e-02
 -6.0416758e-01   5.2331176e-02
  3.3767006e+00   3.7899494e-02
  2.8630502e+00   2.3566928e-02
 -1.5488656e+00   1.2808438e-01
  1.0393449e+00   8.7958515e-02
  4.3690190e+00   9.5225826e-02
  2.1472020e+00   3.8667161e-02
  2.5084264e+00   6.3427038e-02
 -2.3031142e+00   1.8596715e-01
 -2.9563966e+00   2.2115456e-02
  8.5692759e+00   1.9306190e-01
  2.7839990e+00   6.0097806e-02
 -5.9417796e+00   1.3479662e-01
  1.5232189e+00   7.7687442e-02
  4.1314473e+00   3.9422885e-02
  1.7914618e+00   4.0635601e-02
 -1.0803796e+00   7.0459718e-01
  4.5873361e+00   2.9253095e-01
  1.6060424e-01   2.5697652e-01
  6.8384431e-02   3.9393163e-01
 -3.2346616e+00   4.3083739e-01
  6.5642281e+00   6.8842478e-02
  6.1219678e+00   5.2695465e-01
 -3.3464122e+00   1.9396450e-01
 -5.6565819e+00   9.7061478e-02
  2.2441111e+00   2.8018784e-02
  4.4292436e+00   1.7802384e-01
  3.3226821e+00   3.3034134e-01
  6.3947754e+00   1.2313729e-01
  2.1234977e+00   2.0097984e-01
  2.5401434e-01   1.4136670e-02
  3.0460446e+00   1.7958243e-01
 -5.0980515e+00   6.0284384e-02
  6.1469173e-01   1.7533337e-01
 -3.0154519e+00   1.0021716e-01
  8.7561274e+00   9.3634166e-02
 -2.8193331e+00   4.9926004e-01
  8.7923632e+00   9.1437325e-02
 -4.0072238e-01   4.8345797e-02
 -1.7061436e-01   3.3989647e-01
 -1.8991771e+00   1.7418955e-01
  6.9333563e+00   3.9966010e-02
  1.6513537e+00   3.2644418e-01
 -2.3409340e+00   5.6051984e-03
 -7.7017373e-01   7.0180669e-03
 -1.2140781e-01   2.1189286e-03
  1.5864471e+00   3.1893873e-03
  1.0545886e+00   4.4289757e-03
  2.3569790e-01   4.4370880e-03
  1.9387472e+00   2.0007012e-02
 -2.8149011e+00   3.3575273e-03
 -2.7499366e+00   2.1978676e-02
  3.2215137e+00   4.5043182e-02
 -9.2536318e-01   1.3472796e-02
  4.5677347e+00   8.0915064e-02
  1.3105617e+00   2.7060868e-02
 -2.0278709e+00   2.2999100e-02
 -1.1818838e+00   1.4494618e-02
  4.2119293e+00   1.0210194e-02
 -9.4475162e-01   5.6274328e-03
 -3.0980196e+00   7.5646266e-02
  1.6805227e+00   2.2628957e-02
  6.1170214e-01   4.3478957e-03
  1.6433185e-01   7.4239485e-02
 -6.1051399e-01   1.3902291e-02
 -2.0263937e+00   1.7927902e-02
  4.5046091e-02   3.7439443e-02
  3.6700561e+00   1.1837570e-02
 -4.9101338e+00   6.4710830e-03
 -1.3175271e+00   1.2814506e-02
 -9.8224694e-01   2.0877115e-02
 -1.5911767e-01   1.8203534e-02
 -3.2940047e+00   2.9660601e-02
 -5.2545128e+00   8.8549815e-02
 -4.6850710e+00   1.5930824e-02
  4.3860860e+00   3.9044891e-02
  1.4027166e+00   3.9026365e-02
  8.8490021e-01   1.3831488e-02
  1.4338192e+00   2.9247990e-02
 -2.5136369e-01   1.2855344e-02
 -1.0539285e+00   1.0478145e-02
 -2.3306715e+00   1.4454892e-02
  2.6580617e+00   1.5110788e-02
  4.4747156e-01   3.2923885e-02
  8.5756916e-01   1.2442877e-02
 -1.8851714e+00   1.5243538e-02
  6.6553694e-01   3.2997720e-03
  2.2506571e+00   3.5887320e-02
 -1.2438536e+00   4.0789496e-02
 -4.1490750e+00   8.5120974e-03
  3.3581346e-01   2.8632963e-01
  3.5117137e+00   3.3817772e-02
 -1.3461972e+00   1.9374360e-01
  1.4187144e+00   1.2521983e-02
  1.5673501e+00   8.2044601e-02
 -7.6389265e-01   1.6969454e-01
 -3.6230415e-02   9.1890961e-02
 -2.2010393e+00   5.6689924e-01
  2.3046408e+00   1.6355968e-01
 -1.5183544e+00   4.7148883e-02
  2.1076775e+00   7.7097422e-01
 -1.6786928e+00   2.8586474e-01
 -1.4818506e+00   5.1427680e-01
 -4.0406260e+00   1.1872143e-01
 -2.1913679e+00   9.7531259e-02
  3.6800897e-01   4.3428127e-02
 -6.4972153e+00   1.7475820e-01
 -6.3328034e-01   2.1031107e-01
  2.7010879e-01   3.8992200e-02
  2.1015722e-01   3.8963789e-01
  2.4046180e+00   7.0966161e-03
  1.6851336e+00   1.2456503e-01
 -1.3431382e-01   3.4017947e-02
 -1.8540716e-02   4.3059054e-01
  1.0394069e+01   1.5036996e-01
 -4.2094388e+00   1.2326974e-01
 -1.0540252e+01   6.6360570e-02
 -1.2736108e+00   1.3584772e-01
  6.5038490e+00   1.5249515e-01
  2.0054912e-02   8.2128003e-02
 -8.5034542e+00   2.2363129e-01
  3.0734291e+00   6.3519083e-02
 -3.4246082e+00   6.5589689e-02
 -1.3727347e+00   3.4472197e-02
 -1.9132371e+00   2.3192716e-01
  9.9594402e-01   1.0841725e-01
 -1.3816764e+00   4.5470959e-03
 -7.4063450e-01   9.4014257e-02
 -9.7957772e-01   1.0841092e-01
 -4.6696429e+00   1.0627143e-01
 -7.7533090e-01   9.7678328e-01
 -2.9912431e+00   2.7550554e-02
 -1.5852897e+00   8.6385824e-02
  4.2183381e-01   2.4370933e-01
 -7.1696157e+00   1.5667467e-01
  2.1679010e+00   9.4992116e-02
 -6.8885386e-01   5.7411022e-03
  8.9281631e-01   2.1587636e-02
  6.8110805e+00   3.1891610e-02
  5.0722475e+00   4.9374633e-02
  3.9741783e+00   9.9142611e-02
 -3.3292305e+00   3.6559265e-02
  8.1807852e+00   9.2320904e-02
  2.7019939e+00   2.7235264e-02
 -6.9229782e-01   1.6791545e-01
  7.8477764e-01   1.4454873e-01
 -4.5129242e+00   2.9841605e-01
  3.3160663e+00   1.4800004e-02
 -3.7119226e+00   1.1881900e-01
  4.7912269e+00   1.0243214e-01
  1.7862563e+00   2.5618643e-02
 -2.9136980e+00   4.1458514e-02
  1.9367081e-01   5.7024688e-02
 -7.1171975e-01   5.3922206e-02
 -6.5111232e-01   1.7978016e-02
 -1.2211413e+00   6.9216490e-01
 -3.8786132e+00   3.8415551e-02
  1.5166363e+00   2.6581541e-01
  2.3641255e+00   3.6106825e-02
 -2.2446297e-01   6.6402569e-02
 -6.7149372e+00   2.2200637e-02
  2.9158380e+00   3.3470791e-02
  2.7214439e+00   4.3876868e-01
  6.5132446e+00   1.5491229e-01
  7.3014057e-01   2.1141079e-01
 -6.2251586e-01   3.2779492e-02
  4.5557966e+00   1.4799704e-01
 -3.1075606e+00   8.6776800e-02
 -8.7305325e-01   8.1292592e-02
  7.4605393e-01   9.7191846e-03
  9.0540892e-01   5.4999184e-02
 -1.2646606e+00   2.8685391e-01
  6.1698084e+00   3.3944182e-02
  7.0104189e+00   1.2620702e-01
 -5.6176245e-01   4.2431656e-02
 -5.0116038e+00   1.6273899e-01
  1.0675703e+01   4.7769118e-02
 -1.1686672e+00   5.3993791e-01
 -2.5874192e-01   3.4394253e-02
  3.4012504e-02   1.4480574e-01
 -2.8783479e+00   9.7041167e-02
 -6.1665839e-01   5.7814643e-02
  1.0552623e+01   4.7744531e-02
  1.5111059e+00   6.8560064e-02
  1.8370777e+00   5.1053319e-02
  1.7068493e-01   3.1963810e-03
 -1.1882744e+00   2.7157217e-02
  2.3307409e+00   1.7445631e-01
 -6.7251816e+00   5.9972638e-03
  1.5689272e+00   3.0017254e-01
 -6.7590183e-01   2.7728505e-02
 -2.3342712e+00   3.2337326e-01
 -2.5621040e+00   1.2165248e-01
  2.1718607e+00   4.2649072e-01
 -1.3104080e+00   9.7067505e-03
  1.4190830e+00   5.8625966e-02
 -2.9961517e+00   4.4049686e-01
  1.2583467e-01   3.7945744e-02
  1.1515489e+00   1.7796610e-02
  1.0157826e+00   1.3465469e-01
 -3.3781675e-01   3.2125324e-02
  1.2451462e+00   5.4135729e-02
  1.0854993e+00   1.0759024e-01
  5.6971378e+00   1.6398595e-01
 -3.1483853e+00   1.9159762e-02
  1.7464319e+00   4.3606889e-01
 -1.2883890e+00   9.0456039e-02
  1.3949555e+00   8.6268619e-02
 -4.1434608e+00   1.5236379e-01
 -1.8438795e+00   2.0218588e-02
 -2.3996325e+00   5.1560150e-03
 -3.1593015e+00   1.4540679e-02
  1.8440601e+00   2.0089713e-01
 -6.8746132e-01   2.7126225e-02
  1.6201229e+00   5.1395740e-02
 -5.0156298e+00   6.4918943e-02
 -1.2683461e+00   1.3989991e-01
  1.9467010e+00   3.0087581e-01
  4.3319526e+00   3.1922683e-01
 -5.3729906e+00   5.8949571e-02
 -2.7729263e+00   4.4498339e-01
 -5.6625910e+00   5.6864254e-02
  6.9695787e+00   7.5065799e-02
  3.3259919e-01   3.8265761e-03
  3.4443860e+00   8.7632127e-03
 -7.8149205e-01   7.7632754e-03
  1.2467576e+00   1.6130664e-03
 -9.5679581e-02   1.1468002e-03
  2.9378102e+00   1.0672134e-02
 -9.5779556e-01   4.0294244e-03
 -1.3432131e+00   3.8060877e-03
  1.5051854e+00   3.7103682e-03
  3.8871517e+00   1.2863792e-01
  1.8322918e+00   5.2730251e-02
 -4.7057276e+00   5.4724362e-02
  4.4847817e+00   3.2475468e-02
  2.5466007e-01   3.6726002e-02
 -1.3887167e+00   8.4089696e-02
  6.6567855e+00   1.3580370e-02
 -5.8603466e-01   9.3604364e-03
 -3.7578504e+00   2.9653879e-02
 -1.7114811e+00   2.0327991e-02
  2.9170151e+00   2.8332686e-02
 -2.6221046e+00   5.4940380e-02
 -7.0723276e+00   3.3124827e-02
 -1.2261545e-01   5.4033492e-02
  7.0096664e+00   2.2917736e-02
  1.7589658e+00   2.7327690e-02
 -1.9059246e-02   9.3219103e-03
  1.5576515e+00   1.6979916e-02
  9.4795540e-02   8.6252488e-02
 -4.9335027e+00   8.1355684e-02
  2.5077336e+00   5.8474805e-02
 -7.0114517e-01   3.9267212e-02
  2.0707760e+00   1.2146961e-02
  4.9886556e+00   2.4152763e-02
  1.0103047e+00   4.4651166e-02
 -1.8556437e+00   4.8970137e-02
 -1.7873996e-01   9.2084538e-03
  2.6879784e-01   8.7119043e-03
  1.1958712e+00   1.9199366e-02
  3.6087916e+00   3.4946699e-02
  1.0984235e+00   4.9037695e-02
 -1.3475999e+00   1.2407012e-02
 -1.3210006e-01   1.9101083e-02
  2.9670835e+00   1.8832322e-02
 -2.1968691e-01   1.6871911e-02
 -7.6375693e-01   1.5972553e-02
 -1.2012222e+00   1.6552636e-02
  3.2335677e+00   4.8746154e-02
 -3.6358750e+00   2.4299700e-02
 -5.0657535e-01   9.7231213e-03
 -8.6353093e-01   4.4039818e-03
  3.5629780e+00   1.5337933e-02
 -2.1022396e+00   1.5268381e-02
 -1.2044892e+00   1.6386114e-02
  5.5656034e-01   4.7949143e-03
 -7.3930216e+00   4.1114584e-02
 -2.6689796e+00   2.4741655e-02
  1.6814811e+00   3.8956669e-01
  3.1465156e+00   8.4831290e-02
  7.0007110e-01   7.1158290e-02
  1.6577743e+00   5.9656639e-02
  3.0221426e-01   3.6617760e-02
 -1.4363123e+00   2.9611390e-02
  2.3228650e+00   5.1535565e-02
  1.9011458e+00   3.8226467e-02
  5.5313468e+00   3.6610011e-02
  4.1339116e+00   1.0662400e-01
  2.1727402e+00   5.1921286e-02
 -5.1742619e-01   5.6394595e-03
  8.7221489e+00   1.6500406e-01
 -3.3097687e+00   3.6749411e-02
  1.7884587e-01   1.9475752e-02
  2.2336824e+00   2.9043274e-02
 -1.4896259e+00   5.6056507e-02
 -2.9509773e+00   4.7786076e-02
  1.8249886e+00   5.0657984e-02
  4.4485176e-01   1.5809871e-01
  6.3808684e+00   1.5297599e-01
  1.1273091e+00   4.5571972e-02
 -3.1651288e-01   3.4216231e-01
 -7.0126122e-01   9.0105809e-02
 -6.1826921e-01   7.4517541e-02
  1.4840422e+00   3.6548652e-02
  8.9170313e-01   1.0413120e-01
  7.2476149e-02   9.9415079e-02
 -3.9303310e+00   1.0858973e-01
 -2.2036092e+00   8.4467959e-03
 -2.6105559e+00   2.0739980e-01
  1.0461621e+00   1.6326383e-02
 -8.0719873e-02   1.8585825e-02
  1.7236753e+00   2.2413254e-02
 -2.8235171e+00   6.7438340e-01
 -1.4180059e+00   7.9558954e-02
  6.3696200e-01   6.6153087e-02
  3.5128174e+00   1.3679296e-02
  3.5625391e+00   2.6719651e-01
 -1.2653775e+00   1.9760300e-01
  9.7704248e+00   2.8520951e-01
 -1.3632059e+00   1.3885784e-01
  9.4146468e-02   8.2624279e-02
  3.4421272e+00   2.4490254e-01
 -3.0559824e+00   9.0746261e-02
 -2.2870872e+00   8.5079741e-01
 -2.9012382e+00   1.5587679e-01
 -7.9351144e+00   1.1670051e-01
 -5.8636230e-01   9.4289362e-02
 -4.1462326e+00   1.9472547e-01
 -7.0490998e-01   1.6269499e-02
 -1.7670962e-01   4.5112929e-01
  1.1614355e+00   1.4425878e-01
 -1.7381564e+00   1.5236882e+00
 -3.1180801e+00   5.4493731e-01
 -5.6308579e+00   6.7267165e-02
  3.3774784e-01   2.3486787e-02
  7.9386050e-01   2.5812397e-02
 -6.3065296e-01   3.4227845e-01
  2.0482438e+00   1.1474963e-01
  2.0115936e+00   1.4643669e-01
  1.6780593e+00   5.2616142e-02
 -5.6249495e+00   6.9220714e-02
  9.2042112e+00   1.0034809e-01
  3.4708178e+00   5.6737788e-02
 -6.0898380e+00   5.1340606e-02
  2.0403093e-01   2.8524678e-02
  3.2649305e-01   2.3702112e-01
  2.3346589e+00   1.6085472e-02
  2.4951434e+00   2.5486272e-02
  3.5623884e+00   1.7954926e-01
  8.7771201e-01   2.2056120e-02
  1.3002795e+00   1.5623252e-01
  4.1424699e+00   1.4348269e-01
 -1.1589049e+00   2.7627465e-01
  1.0404774e+01   9.9102758e-02
  8.9929110e-01   6.3307159e-02
 -2.9838428e-01   1.8590289e-01
  4.7461322e-01   1.8876809e-01
  4.4529088e-02   3.9887737e-02
 -2.4913833e+00   1.5449299e-02
 -1.1801496e+00   2.4312152e-02
 -1.1186286e+00   7.0143575e-03
  2.9271880e-01   4.1448496e-02
  1.2794705e-01   5.8841356e-03
  3.5626512e+00   6.6642235e-03
  3.9591806e+00   9.4159078e-03
  1.0527148e+00   1.3154802e-02
  1.8699468e+00   2.1151511e-02
 -6.3473439e+00   2.9499924e-02
  2.5867393e+00   9.4492491e-03
 -1.0330729e+01   1.2344749e-01
 -5.0501162e-01   9.3034312e-02
 -1.4021413e+00   7.4315861e-02
  1.3459625e+00   4.9937356e-02
  1.9394885e+00   7.1138076e-02
 -5.8377999e-01   2.5799489e-02
 -3.2661805e+00   1.3180256e-02
 -3.6095765e-01   3.2573529e-02
  1.7902001e+00   2.1733534e-02
  8.0562197e-05   4.8426021e-02
 -9.0428265e-03   8.0038629e-02
 -9.0204401e+00   1.2824550e-01
 -5.4261625e-01   2.3066724e-02
  7.1498698e-01   6.8388372e-03
  1.6934100e+00   9.0785250e-03
 -4.6059570e+00   2.3087241e-02
  1.5352976e+00   3.8174976e-02
 -5.4777236e+00   1.1204845e-01
 -5.0204120e+00   1.0354605e-01
  4.3066015e+00   8.3259568e-02
  8.5475087e-01   3.7465770e-02
  9.9217850e-01   9.5532522e-02
 -1.5981163e+00   8.0936231e-02
  9.3460396e-02   3.2652341e-02
  7.2183025e-01   3.7356815e-03
  3.7257049e+00   3.7573062e-02
 -5.9623976e+00   2.9499192e-02
 -9.5764008e+00   6.2560037e-02
 -4.7742206e-01   2.0548778e-02
  5.7224126e+00   6.6950612e-02
  1.6165667e+00   3.8707286e-02
  7.3630983e-01   1.7423870e-02
  1.5833439e+00   1.8104730e-02
 -9.2149174e-01   1.9757450e-03
  2.8067714e-01   2.3992255e-03
  1.1109481e+00   1.3064781e-03
  6.6887456e-01   5.9491419e-04
 -7.3974198e-01   4.6262739e-04
  9.5653820e-01   1.6597017e-03
 -2.3978302e+00   8.6518610e-04
 -1.0780349e-01   1.9928808e-03
  6.2713844e-01   1.6674956e-03
 -1.3846349e+00   3.5077434e-02
  2.2590640e+00   7.2797476e-03
 -5.0854534e-01   1.2642231e-02
 -1.5961765e+00   1.3813750e-02
 -1.7677988e+00   1.2435530e-02
  6.5566474e-01   8.4757553e-03
  3.9833870e+00   3.2169581e-03
  1.4994971e+00   2.9311061e-03
 -2.9192109e+00   7.5638345e-03
 -7.2442400e-01   7.4253613e-03
  9.0319389e-01   2.9664459e-03
 -7.4587363e-01   5.2307271e-03
 -4.7287944e-01   1.0551412e-02
 -1.9232446e+00   8.2808388e-03
  5.3281611e-01   3.5323841e-03
 -9.0976697e-01   9.2741558e-03
 -8.7537909e-01   1.7620238e-03
  1.8362353e+00   1.9372464e-03
  1.9237776e+00   7.7866851e-03
 -1.2490443e+00   7.8835711e-03
 -5.4973704e-01   1.7075757e-02
 -1.0482382e+00   8.8067697e-03
  2.4480845e-01   6.6869739e-03
  1.0056607e+00   6.1733644e-03
 -4.8526859e+00   6.7678154e-03
 -1.2103344e+00   3.0942541e-03
  1.5256810e+00   2.5537231e-03
 -7.9241693e-01   4.9901474e-03
  1.1906801e+00   3.1907680e-03
  1.7483711e-01   5.1929709e-03
 -1.1131110e+00   6.9519365e-03
  3.9659519e-02   2.8010143e-03
  7.2107010e-02   2.0396619e-03
 -1.8407230e+00   2.3405952e-03
  1.2241443e+00   2.1116880e-03
 -6.9389798e-02   4.9831499e-03
 -3.2727294e+00   4.5302950e-02
  2.5705612e+00   1.1519916e-01
 -2.5439179e-01   8.1375092e-02
 -6.1929755e+00   2.9783241e-02
 -5.9473205e-01   6.5815628e-02
 -8.2721156e-01   2.1877704e-02
 -2.1150397e-02   9.4201766e-02
  7.0072041e+00   3.0346435e-02
 -5.1020699e+00   5.3639010e-02
 -7.8934735e-01   2.5277382e-02
  1.1760564e+00   1.4851485e-01
 -3.5508587e+00   1.5009129e-01
 -3.4238547e-01   1.3883065e-02
 -1.7862977e+00   9.1247559e-02
  2.4322948e+00   1.1131589e-01
  2.9513154e+00   5.6083266e-02
  1.4093956e+00   1.0777725e-01
  1.1655972e+00   2.9786909e-01
 -6.8877268e+00   8.1674293e-02
 -2.7576077e-01   1.7459704e-01
  1.8925309e+00   7.8483885e-03
 -3.0027914e+00   9.5201373e-02
 -2.6119652e-01   3.7694715e-02
 -2.2242701e+00   2.0743948e-01
 -3.9914725e+00   6.2988758e-01
  3.2053882e-01   4.6224427e-01
 -8.2873243e-01   2.4290798e-02
  7.4054843e-01   2.0220409e-01
  5.3749051e+00   5.4418173e-02
 -3.5044673e-01   5.9018333e-02
 -6.0623631e-02   6.2765169e-01
 -3.3040876e+00   6.6442981e-02
 -3.9845988e-02   1.7910819e-01
 -4.6115408e+00   1.4309578e-02
  9.5701182e-01   2.1903217e-02
  4.3134103e+00   7.0630334e-02
 -5.0774484e+00   1.9543920e-01