 -2.4976488e-04   1.2344784e-04
  8.1949931e-04   9.4181678e-04
  3.4347279e-03   3.7578205e-04
 -3.5547898e-03   1.3692550e-04
  6.4093694e-03   4.0639902e-04
  3.3920379e-03   3.8135154e-04
 -9.3785458e-04   2.8864530e-04
 -1.7498966e-03   6.4812979e-04
 -9.7802915e-03   6.6759664e-04
  3.8470733e-03   4.0793582e-04
  2.2415868e-03   1.4347518e-03
 -6.6046156e-03   7.9434918e-04
  5.3650085e-03   7.9905282e-04
 -5.4677767e-03   3.8725333e-04
 -2.7673694e-03   1.0428198e-04
  8.9812735e-03   1.2058290e-03
 -4.0525729e-03   3.7137279e-04
 -9.7483437e-04   3.1926672e-04
 -1.6217163e-03   3.7908601e-04
  3.9042754e-03   1.0436637e-03
  4.9946192e-03   1.9720235e-04
 -2.6598985e-03   5.0023606e-04
  6.0401843e-03   4.6825031e-04
 -1.7136950e-03   2.6397337e-04
  1.5407621e-02   2.2799342e-03
  9.9185808e-04   1.0677634e-04
  2.8193055e-03   1.7413731e-04
  1.3946372e-03   3.3734474e-04
 -5.0440510e-03   2.1201672e-03
  1.1752449e-03   6.8274036e-04
 -2.1786897e-03   8.1492198e-04
  4.9840956e-04   2.7253057e-04
 -1.0757285e-04   3.3830421e-04
 -3.8409795e-05   2.9833609e-04
  2.7081929e-03   8.7073940e-04
 -9.5830596e-04   1.1160016e-03
 -2.2119583e-04   1.0963088e-03
 -1.5506118e-04   1.8435279e-04
  1.8498545e-03   1.1135461e-03
  1.7780376e-03   9.2369062e-04
  5.9890770e-04   5.1892752e-05
 -3.4549276e-03   8.2147366e-04
  6.5016518e-03   3.3436666e-04
  7.2465963e-03   4.4855729e-04
 -2.4623289e-03   9.0734469e-04
  6.9030942e-03   3.7249681e-04
  7.1168081e-03   6.8799913e-04
 -3.9415187e-03   9.7747811e-04
  6.5154890e-03   3.2434813e-04
 -3.7730143e-03   2.0220116e-04
 -2.3162847e-03   2.4026085e-03
  5.7367301e-03   2.8389637e-04
  2.5538323e-03   8.2282803e-04
 -2.7063815e-03   8.5402845e-04
  3.1995669e-03   4.4747640e-04
  4.5316964e-03   5.8151229e-04
  1.1384356e-03   8.8788039e-04
  2.7224908e-03   4.4611550e-04
  4.8436539e-04   5.5252662e-04
  2.7864226e-03   7.6727336e-04
  2.7236138e-03   5.4001622e-04
  3.7898922e-03   9.5755822e-04
  3.2013687e-03   5.9122726e-04
 -5.0086156e-03   8.7818969e-04
  5.9975204e-03   1.3378620e-03
 -4.9597300e-03   1.1063218e-03
  8.3467935e-04   9.2395334e-05
  7.0778974e-03   9.4333856e-04
  2.7340854e-04   1.0534534e-03
 -6.2962645e-04   2.2611568e-04
 -4.9247130e-05   3.3061713e-04
  3.1174682e-03   7.7549764e-04
  2.9714296e-03   8.3199347e-04
 -1.0802873e-03   8.4704411e-04
  1.9647256e-03   5.4067757e-04
  2.2438553e-03   5.7919812e-04
 -3.8360392e-03   6.1158108e-04
 -3.3773233e-03   1.0084927e-03
 -2.6702513e-03   9.7605825e-04
 -4.0249297e-04   3.3870412e-04
  2.1307253e-04   3.4139707e-04
  1.3425510e-03   7.4218563e-04
 -2.5198285e-03   4.0067694e-04
 -7.1230829e-03   5.1727123e-04
 -5.9369067e-03   3.9447413e-04
  1.7209498e-03   1.5252232e-04
 -1.3013945e-03   2.3711960e-04
  2.1377793e-03   1.0326497e-03
  5.6503399e-04   2.0617840e-03
 -2.9197198e-03   8.9424895e-05
  1.1976724e-03   1.2228607e-03
 -6.9541959e-03   1.4697684e-03
 -3.4748676e-04   2.6911325e-04
  1.0816419e-03   1.5235855e-04
 -1.7990185e-03   3.8071020e-04
  1.0537670e-02   7.5455388e-04
  2.7068411e-03   1.0606867e-03
 -2.5758427e-03   8.4929453e-04
 -2.0212394e-03   5.2464812e-04
 -1.4525607e-03   5.3611363e-04
 -3.7483673e-04   2.3899027e-04
  8.2091358e-04   7.9820456e-04
 -3.8337705e-04   1.1793948e-04
  3.4683684e-03   9.9024724e-04
 -7.3909515e-04   1.5156181e-04
  8.9208428e-03   1.4205206e-03
 -1.7501019e-03   1.2150718e-03
 -1.4416664e-04   9.0095896e-04
 -1.2325775e-02   1.5838034e-03
  3.0638283e-05   1.3730192e-03
 -2.8565854e-03   9.8084519e-04
 -4.1780677e-03   9.4344298e-04
 -8.9731123e-03   1.2008977e-03
  1.3377838e-03   1.0949038e-03
  4.8123519e-03   4.9518043e-04
  3.1566103e-03   4.5505760e-04
  5.0708326e-04   8.0497487e-04
  2.0499080e-03   9.8716747e-04
  5.6288752e-04   5.5184646e-04
 -2.1461006e-03   1.5419180e-03
 -6.5762663e-01   4.1915488e-04
 -1.5534037e-03   3.5200422e-04
 -6.7422408e-01   2.8235913e-04
 -6.4119154e-01   4.3719946e-04
 -8.8087344e-01   5.5769179e-04
  2.8530157e-03   4.8519432e-04
 -3.9369336e-01   4.8588024e-04
 -2.6233299e-03   6.2320224e-04
  1.2582651e-01   2.1878451e-04
  1.0447199e-03   4.9015140e-04
  3.7101612e-03   1.0512711e-03
 -5.2435637e-01   1.3930297e-04
 -7.9350648e-05   9.5037853e-05
 -2.4560818e-01   8.4160158e-05
  4.6704952e-03   1.0538409e-03
  5.6136106e-03   1.4010373e-04
 -6.3922912e-01   3.2212990e-04
  1.7362344e-03   2.2948546e-04
  2.8883456e-04   4.6676223e-04
 -1.3346423e-03   3.6432399e-04
 -2.9177903e-03   6.9472095e-04
 -6.7695653e-01   2.9790847e-04
 -2.7535397e-03   1.1791150e-03
 -5.6725866e-03   8.4485808e-05
 -1.2242442e-04   3.2530323e-04
  1.8638870e-03   5.0866132e-04
 -8.0192894e-02   1.3200114e-03
 -2.1856831e-02   2.3752154e-04
  5.3435694e-03   3.0623534e-04
  4.2250222e-03   4.7264999e-04
 -5.4333010e-03   1.2254998e-03
 -2.0332146e-03   1.0811925e-04
 -1.7287232e-03   5.4712390e-04
 -4.3159010e-04   1.1457854e-03
 -6.5321722e-03   1.3273212e-03
 -6.6962726e-03   1.9086819e-04
  6.9289445e-03   7.5230037e-04
  3.1342492e-03   6.7849345e-05
  8.0547703e-04   1.0686951e-03
 -4.1325414e-03   5.7216565e-04
 -2.7481369e-03   2.3396777e-03
 -2.5314547e-04   1.2211127e-03
 -2.2298759e-03   1.3591207e-03
  1.1949138e-03   1.2127848e-04
  6.8382884e-04   1.8404843e-04
  3.6399351e-03   1.3941969e-03
  5.5059243e-04   1.2928765e-03
  5.9240675e-03   1.0108253e-03
 -1.1842176e-02   6.7510648e-04
  5.7156663e-03   1.8022743e-04
 -3.7872030e-03   4.4630314e-04
 -1.0029502e-02   5.8704504e-04
 -2.0799506e-03   5.2865123e-04
  3.9525395e-03   2.6544076e-04
 -6.2002954e-03   8.8770111e-04
 -1.3847601e-03   1.2992007e-03
 -1.5672839e-03   6.5246131e-04
  1.3364970e-03   1.2995586e-03
  2.4698838e-03   6.7198323e-04
 -3.4018388e-04   1.5544528e-03
  2.4687923e-03   6.9123704e-04
  3.5897377e-03   1.4655835e-03
  5.4570111e-03   2.9453033e-04
  3.1947691e-03   7.3193415e-04
  1.6908043e-03   9.8283391e-04
  7.5177127e-04   7.1965612e-04
  4.9046939e-04   3.5386672e-04
  1.9104575e-03   7.4454219e-05
 -2.4545871e-01   4.3253665e-04
  6.4212331e-03   1.0358744e-04
 -1.2709820e-03   1.8093954e-03
  2.0456553e-01   6.3184847e-04
  2.6083415e-04   3.5855555e-05
  1.2132590e-01   5.9336965e-04
  2.9677339e-03   1.8494381e-04
 -2.5080000e-03   1.8177801e-04
  1.3430651e-01   3.6469723e-05
 -1.8436488e-04   3.9440094e-04
 -1.9328945e-03   2.9665578e-04
 -3.8120516e-03   4.8944348e-04
  7.3953415e-03   6.4323680e-04
  1.0311712e-01   2.4264758e-03
  2.2685870e-03   1.2720478e-04
  6.3621434e-03   3.9372189e-04
 -8.0809346e-04   8.9687190e-04
  1.5855896e-03   3.8031026e-04
  9.0063456e-03   1.0811554e-03
  5.1434449e-04   9.3064952e-04
 -8.3692888e-05   4.7547353e-04
 -5.4907426e-03   6.2729203e-04
 -2.6561746e-03   1.2876175e-04
  1.9972181e-04   8.6798577e-04
  3.0236283e-01   4.8276735e-04
  3.6854562e-01   5.0654016e-05
  9.0128511e-01   8.7322929e-05
  7.7536056e-04   9.1041502e-04
  7.9873586e-01   1.4768218e-04
  8.2393060e-04   9.3217054e-04
 -1.6877288e-02   6.7620137e-04
  2.8740609e-04   4.4433211e-04
  1.1392124e-03   1.3840304e-03
  4.4653937e-01   5.4914458e-04
  1.7031906e-03   2.1329655e-04
  2.6358175e-01   9.8810729e-04
  8.8200590e-04   4.3045409e-04
 -7.0655989e-03   2.6774954e-03
  2.9534400e-01   1.9454487e-04
  1.9689921e-02   2.9621174e-04
  1.1030716e-03   9.7518956e-04
  7.8991981e-04   3.1831031e-04
 -5.4096379e-03   8.8114268e-04
  2.3926584e-02   3.4378044e-04
 -1.0314217e-03   1.3216134e-03
  2.2267506e-03   3.1312904e-04
  5.0448263e-03   2.2023689e-04
  5.3586592e-03   1.4015313e-03
  4.5103692e-02   3.5478603e-03
 -2.6860245e-04   1.8487229e-04
  5.3016626e-04   1.0418410e-03
  5.5354706e-04   3.4644251e-04
 -4.6497756e-01   9.7062124e-04
 -1.4255638e-02   1.2648209e-03
 -1.5599656e-01   1.4499059e-02
 -1.1448617e+00   1.9245841e-05
 -1.1315746e+00   5.4259005e-04
  2.0368330e-04   7.6272024e-04
 -8.4703408e-02   1.5136710e-04
 -4.6388838e-03   1.5499415e-03
 -5.1423568e-01   6.4311916e-04
 -4.2449431e-03   1.1680237e-03
  4.9927766e-03   1.9510246e-04
  4.5320662e-03   4.3853503e-04
  1.7877485e-03   7.5492804e-04
  4.5822065e-02   9.5102593e-04
  2.3616180e-03   1.9270392e-03
  2.9878368e-04   7.3611957e-04
  1.4308451e-01   4.6000746e-04
 -5.9294547e-03   6.1289017e-04
 -7.0485376e-02   3.0805636e-04
  1.9465834e-03   9.5972262e-04
  6.4219185e-04   1.0017114e-03
  2.1642775e-03   7.7405100e-04
  1.2983355e-03   8.7328680e-04
  2.8394458e-01   6.1342464e-04
 -5.5148336e-04   7.4570527e-04
 -8.0002981e-05   2.3791472e-04
  6.4115999e-03   1.2883493e-03
 -7.8680329e-03   2.8302099e-04
 -4.0084524e-03   5.7453947e-04
  1.1103910e-04   8.6787221e-04
 -6.8512851e-01   5.6789551e-05
 -1.4849824e-03   1.2230270e-03
  1.0952296e-01   3.0064187e-03
 -4.6230811e-01   1.2382038e-04
  1.0265934e-01   2.9236889e-03
 -1.6054683e-03   1.3931371e-04
  1.4216544e-03   1.6903758e-04
  4.4140005e-03   2.3084534e-03
 -2.8915331e-01   2.9985583e-04
  2.1398842e-05   1.9357944e-04
 -5.0104078e-04   1.6551091e-03
  2.5704777e-01   8.2229664e-05
  1.4597012e-03   1.3566726e-03
  3.5344666e-01   5.1695789e-04
  2.6965449e-03   3.2644696e-04
 -4.9505364e-03   5.0355640e-04
  3.1102598e-01   4.0424528e-04
 -9.3789268e-03   5.2297331e-04
 -1.6989732e-02   1.3515138e-03
 -1.5907662e-03   2.3011990e-04
  1.5104624e-03   5.7442638e-04
  1.3034536e-01   2.2114736e-03
  1.3768446e-03   2.5803424e-04
  5.1654857e-02   6.4415217e-04
 -3.5434794e-03   1.2112434e-03
  8.3918236e-03   1.5400419e-03
  1.4696006e-02   1.6212548e-04
  1.1801926e-02   5.6801370e-04
 -1.4560369e-03   1.1563979e-03
 -3.5313123e-03   1.2559185e-03
  2.4075187e-03   1.0020218e-04
  2.0031248e-04   3.6684996e-05
  8.6418760e-04   1.4212537e-03
 -6.1141155e-03   3.1278023e-04
 -1.0770305e+00   1.7807480e-04
 -6.1494770e-04   5.5547876e-05
 -2.6408334e-03   2.3923619e-04
  1.1684454e-01   8.6741216e-05
  1.2379272e+00   1.0291530e-03
  2.2572398e-02   5.3455052e-04
  1.0237410e-03   9.8797632e-04
  1.1580500e-03   1.1163004e-03
 -3.8178642e-03   1.8077439e-03
  6.6048205e-02   4.4259505e-04
 -1.3045195e+00   4.7792309e-05
 -8.1837480e-04   1.4011521e-03
  4.4492307e-01   4.1145500e-04
  8.5928649e-01   7.6733071e-05
  1.2048485e+00   1.0292371e-03
  7.1346670e-01   6.8640395e-05
 -3.5214652e-03   7.9411990e-04
  2.5082265e-03   1.2658234e-04
 -7.3544364e-03   1.1759590e-03
 -4.3567223e-03   6.5266254e-04
  3.4108586e-03   4.6593091e-04
 -1.0482613e-04   8.7797601e-04
 -5.3382618e-04   5.4140436e-04
  2.3348260e-04   1.8763730e-04
 -1.3791620e-03   6.1428791e-04
 -8.3538657e-03   9.1026060e-04
 -1.0519555e-02   4.0115186e-04
  4.8724217e-03   1.0372669e-03
 -1.9198930e-03   2.6366455e-04
 -5.9685176e-03   2.5346186e-03
 -1.4950116e-03   9.6679042e-04
 -2.8326805e-03   2.6829087e-04
 -5.9358617e-03   1.1030014e-03
 -5.2516474e-03   1.4286287e-03
  3.1367975e-04   9.5244317e-04
 -2.1172182e-03   4.6715530e-04
  4.6132230e-03   5.8178726e-04
 -6.2754066e-03   1.6382261e-03
 -1.1991297e-03   7.7532214e-04
 -2.3853853e-03   2.7726646e-04
 -2.5016859e-03   8.0149656e-04
 -3.1451462e-04   2.7893035e-04
  7.6363847e-04   3.7292126e-04
  2.0165239e-03   4.1203923e-04
  4.3619052e-03   1.4191219e-03
 -1.3556251e-03   9.4724307e-04
 -1.5626678e-02   7.4951060e-04
 -5.7839211e-03   1.4859074e-03
  4.8859748e-01   3.6387861e-04
 -1.2910095e-04   4.3659346e-04
 -3.1617312e-03   8.8321796e-04
  1.4382976e-03   2.5529094e-04
  1.1949518e-03   4.6511926e-04
 -4.3513440e-03   1.1217098e-03
 -2.3528637e-01   8.7154476e-05
  1.8260613e-03   5.6480122e-04
  1.1784924e-03   8.1864413e-04
 -7.9576578e-04   1.4428254e-03
 -3.3543592e-03   4.4317401e-04
  1.9887676e-03   6.4612122e-04
 -2.3478826e-03   1.1361571e-03
 -2.7666595e-03   2.5515459e-04
  3.4334795e-03   4.2215822e-04
 -2.8731599e-01   4.8287293e-05
 -4.0341290e-03   1.8249862e-04
  3.1707929e-03   5.4481276e-04
  1.2348477e-03   2.3799778e-04
 -4.7238669e-03   3.1915025e-04
 -4.5431531e-03   1.0459442e-03
  2.8251304e-04   3.3499073e-04
  1.3785427e-03   3.5347824e-04
  2.0271195e-03   2.1312061e-04
  2.4422130e-04   1.1988127e-03
 -2.9225170e-03   6.8696117e-04
 -3.1577495e-03   3.1908648e-04
  1.4379789e-03   2.2947015e-03
  2.6371386e-03   4.4679921e-04
  3.2627545e-03   5.0143129e-04
 -1.2331542e-03   7.3490303e-04
  2.7368339e-03   1.3601290e-03
 -5.0268564e-03   2.0391637e-04
 -3.9321338e-03   1.0112261e-03
  1.5809468e-04   1.2486692e-03
  3.1498477e-03   2.6621975e-04
 -6.4806774e-04   4.0898207e-04
 -5.2500954e-03   1.1186327e-03
  8.1673753e-04   3.8714980e-04
  3.1735292e-03   1.9442747e-04
  4.4746089e-04   2.6882606e-04
 -2.3604752e-03   5.3434609e-04
  2.6686853e-03   1.7972776e-03
 -1.0656100e-04   8.2864211e-04
  4.1688434e-03   1.3506461e-03
 -2.5667369e-03   3.5863603e-04
  6.4225821e-04   1.4604295e-03
 -2.9814765e-03   9.2322123e-04
 -5.1784061e-04   6.9327827e-05
  5.3147029e-04   4.1117636e-04
 -3.5425234e-03   3.9767963e-04
  3.1293738e-03   1.7725379e-04
 -1.3992877e-03   4.2363378e-04
 -6.8895181e-04   9.5344428e-04
  7.5515412e-04   8.8132930e-04
  5.3737457e-03   2.9352176e-04
  2.0691921e-04   1.5400880e-03
 -3.3380568e-03   4.0373800e-04
 -1.9123669e-01   3.3615224e-04
 -2.4216652e-03   4.7548191e-04
 -5.8841360e-01   5.2099782e-05
 -1.6625836e+00   6.2142353e-04
 -8.8782907e-01   7.9858274e-04
 -8.6935349e-03   1.1687732e-03
  7.9841483e-03   4.0662114e-04
  2.9396931e-02   1.6542297e-04
  3.6179274e-01   1.4362913e-04
  3.3380329e-03   7.4700953e-04
 -2.2259167e-04   7.9494741e-05
  3.8073920e-03   1.3601131e-04
  3.3979192e-01   1.7752378e-04
  3.1474730e-01   4.6194307e-04
 -1.7898185e-03   4.2874840e-04
 -1.6801130e-02   9.7886974e-04
  3.0692320e-03   3.8094193e-04
  3.8785806e-01   3.7448079e-04
  1.4218223e-02   4.5633613e-04
 -5.4510304e-04   5.4808485e-04
  4.6452650e-04   2.1558888e-04
  2.6930720e-03   6.8306201e-04
 -7.1514450e-04   4.0433783e-04
  1.1414685e-01   2.5271525e-04
 -1.1488580e-03   2.6266178e-05
  2.2490416e-03   7.9909747e-04
  2.2308622e-03   1.0077190e-03
  6.9078900e-02   1.4032907e-03
 -8.8010821e-03   1.9461788e-04
 -5.4119773e-05   3.3342020e-04
  3.5476516e-04   3.5494380e-04
 -1.4764235e-04   1.8740485e-04
  2.1592125e-03   5.2577845e-04
 -1.8732267e-03   1.9805157e-04
 -5.0525629e-04   6.0977484e-04
 -3.0883155e-03   4.3666508e-04
  1.6014124e-03   5.3053518e-04
  1.9652485e-03   4.3121891e-04
  1.6656335e-03   4.5921266e-04
 -2.2608717e-03   9.7388925e-04
 -1.2237049e-03   6.0815411e-04
 -1.7876448e-03   4.9994141e-04
  2.9555613e-03   1.2903033e-03
  5.2587385e-04   9.5917250e-04
  3.1941375e-03   7.8131759e-04
  3.5420386e-03   1.0285956e-03
  1.5390678e-03   1.0646001e-03
 -5.2454066e-03   1.6929604e-03
  9.7445780e-03   1.2200161e-04
  1.0204225e-02   4.7103950e-04
  8.7174075e-04   2.8571370e-03
 -2.4410575e-03   3.9461191e-04
  3.0709021e-03   3.2550839e-04
 -6.0620746e-03   7.8595546e-04
 -1.3088316e-04   1.6462509e-04
 -7.5660385e-03   2.5225483e-04
  9.9972112e-04   8.3223562e-04
  2.9038580e-04   4.4499332e-04
 -1.1053720e-03   6.4719410e-05
 -6.0482910e-03   5.8523670e-04
 -5.6600589e-01   1.2094761e-03
 -1.3407620e-04   1.4109001e-03
 -1.2394536e+00   7.7240751e-04
 -5.4594713e-01   1.2625029e-04
 -1.8891816e-01   7.0458394e-04
  1.1712299e-03   1.0506064e-03
 -1.1609903e-02   7.3382520e-04
  1.0867857e-01   6.4214913e-04
  3.8749930e-01   9.7173825e-04
  6.0100546e-03   5.0513481e-04
 -5.6891325e-03   5.7374651e-04
  7.9904747e-04   1.4609350e-04
 -5.4439041e-03   1.4960319e-04
  3.2075339e-03   2.5118378e-04
 -2.3096481e-03   1.4025624e-03
 -5.5546206e-03   1.3753751e-03
 -6.1669843e-03   9.2579483e-04
  4.3024594e-01   1.1537364e-04
  6.5731728e-01   4.0995819e-04
  6.0854992e-04   2.4046453e-04
  2.7736980e-03   3.9115179e-04
  1.9862733e-03   4.9777201e-04
  7.2343677e-02   3.1464986e-04
 -2.3561384e-04   7.5372978e-04
  6.4584492e-03   5.2359665e-04
  7.5276277e-04   1.1237711e-03
  5.3652744e-03   2.0625028e-04
 -6.8206602e-05   1.0544979e-03
  4.8616426e-03   4.9320480e-04
  1.2566987e-03   4.0083734e-04
  2.0334786e-03   1.9481891e-03
 -1.8730133e-03   4.5036018e-04
  1.5606011e-03   7.4668374e-04
 -5.1913148e-04   2.8220867e-04
  4.9464894e-03   4.6609790e-04
  2.4863444e-03   1.4096713e-03
  7.9767499e-03   2.7541240e-04
  1.6248822e-03   2.6979737e-04
 -2.6912151e-03   1.3960825e-03
 -2.3166300e-03   4.0134657e-04
 -5.3131511e-03   4.4868077e-04
 -4.8649020e-04   2.3592556e-04
  8.2453183e-04   6.2036712e-04
  5.1399441e-03   3.0532604e-04
  2.3307216e-03   9.4956107e-04
 -1.2673246e-02   3.8951755e-04
 -8.8812252e-05   5.7846238e-04
  3.9994745e-03   9.7598131e-05
 -4.3755784e-03   3.2110332e-04
  1.3971969e-03   7.7040336e-04
 -1.7466564e-03   9.1548526e-04
 -6.9141272e-03   3.9670581e-04
 -2.9475766e-03   4.6800778e-04
 -4.3635271e-03   9.7707438e-04
 -6.1093870e-04   3.6765862e-04
 -8.4952433e-03   1.4762298e-03
 -7.1522366e-04   5.0601107e-04
 -5.0193309e-03   1.0896124e-03
 -1.6935151e-04   1.4011237e-03
  2.7220690e-04   6.8865262e-04
 -4.1332510e-03   4.4754709e-04
  2.1741737e-04   3.5113603e-04
  1.5746878e-03   9.2967995e-05
 -3.4451380e-03   2.3724113e-04
 -4.7644367e-03   3.9321301e-04
  1.6642339e-04   4.7419587e-04
 -1.2577483e-03   1.4870939e-03
  1.2783944e-03   1.5183293e-03
 -4.0405886e-03   3.4530950e-04
  5.7513183e-03   7.5760187e-04
 -5.8893528e-04   5.8588927e-04
  4.6692407e-03   3.8349899e-04
 -7.1000587e-03   7.9644035e-04
 -6.8740360e-03   4.7869646e-04
 -4.8284689e-03   9.7164215e-04
 -1.9759794e-03   3.3778785e-04
 -2.0614201e-03   1.5282511e-03
  7.5145182e-04   5.2202411e-04
 -1.1057559e-03   7.0476008e-04
  1.8294769e-03   1.7424909e-04
  1.9741189e-04   1.0312657e-03
  4.5740609e-03   1.0417231e-03
  1.5580014e-03   1.2489093e-03
 -7.1486910e-03   1.8921797e-03
 -4.7394778e-03   1.4912862e-03
 -1.3740881e-03   1.1782208e-03
  3.4324848e-03   1.0272753e-03
 -3.0266403e-03   8.5212948e-04
  9.2891380e-03   1.1885643e-03
 -7.1355031e-04   6.4381678e-04
  8.2363887e-03   6.7843235e-04
 -1.5638336e-03   1.9399691e-04
 -1.7428948e-03   1.8231450e-04
  3.6120613e-03   1.8893890e-03
 -7.1491115e-05   7.6477195e-04
 -4.5656823e-03   5.0412177e-04
  4.9329032e-03   2.2947557e-04
 -3.5706831e-03   7.8210433e-04
  5.2981242e-04   2.6234172e-04
 -1.0045186e-03   1.1820237e-03
  1.3457615e-03   5.2617729e-04
  1.3605764e-05   5.3971406e-04
 -1.5848815e-03   4.2553118e-04
  4.1612657e-07   7.1853556e-04
  9.7953831e-05   3.0181126e-04
 -3.2164418e-04   7.4713823e-04
  3.2427807e-03   1.5463827e-04
  2.0018234e-03   4.2615907e-04
  7.2726933e-03   1.1239008e-03
  6.6212295e-03   1.0250713e-03
 -3.0109615e-03   9.6803368e-04
 -4.1440467e-04   8.4192568e-04
 -4.3619185e-04   9.1507455e-04
 -6.5515691e-04   3.2905093e-04
 -4.5013251e-03   8.2869182e-04
  2.4715597e-03   4.6131149e-04
  9.4210688e-04   2.7533266e-04
 -5.7211700e-03   3.0946999e-04
  4.6504010e-03   2.8805461e-04
 -1.2291290e-03   4.4908261e-04
 -1.1564723e-01   4.5826400e-04
 -7.8403689e-05   6.8671064e-04
 -4.7986785e-01   6.9590642e-05
 -5.9949420e-04   7.8738248e-04
  4.3852407e-01   2.1441710e-04
  1.0182106e-02   4.7775806e-04
  4.3233130e-03   5.6887022e-04
  3.1341830e-01   2.3234806e-04
  6.2237862e-03   2.9053332e-04
 -2.4348877e-03   2.9505315e-04
 -3.8584014e-03   3.8059853e-04
  8.4284656e-03   5.9637596e-04
 -1.0827528e+00   1.3413095e-04
 -2.2714175e-01   4.8940803e-04
 -8.1571229e-03   3.4890856e-04
 -1.4820192e-03   2.4924506e-03
  1.1799083e-03   8.3259109e-04
  1.0600644e-03   3.6582540e-05
  1.9998880e-01   1.2556959e-03
  1.5423514e-03   6.1546458e-04
  1.6239659e-03   2.0299912e-03
  4.7596428e-04   3.9441371e-04
  4.6462801e-01   4.1426835e-04
 -1.0755951e-01   2.7911438e-04
 -1.1986741e-03   5.3493475e-04
 -4.7285538e-03   1.1801557e-03
  8.7034085e-04   5.6159770e-04
 -2.1102538e-02   1.8082736e-03
  4.1788672e-03   4.8810145e-04
  6.0527497e-03   9.8566816e-04
  6.7398851e-03   5.4549793e-04
 -4.0422287e-03   1.4524214e-03
 -1.0788779e-03   6.6413742e-04
 -2.9400120e-02   2.9530301e-04
 -1.0222850e-03   1.6408451e-04
 -7.8082490e-01   3.0178629e-04
 -1.3015051e-03   1.8704118e-03
  2.0864755e-03   1.0009286e-03
  1.3885725e-03   3.0684378e-04
  1.5273511e-03   3.9374736e-05
  1.2537253e-03   1.7260126e-04
 -3.0813208e-01   2.3972164e-04
  3.5582518e-04   3.6314747e-04
  1.1745328e+00   3.7536674e-04
  3.4744595e-03   3.5951840e-04
 -9.8408681e-01   3.3686790e-04
 -1.7820481e-03   5.6655792e-04
  6.5003161e-04   3.0580553e-04
  3.2141395e-03   5.8962015e-04
 -8.1086117e-01   2.4007393e-05
  3.8873011e-03   1.1800319e-03
 -2.8411478e-01   6.1296648e-04
 -1.2453715e-02   7.7949990e-06
 -2.9418222e-03   1.7627093e-04
  9.8592110e-02   5.7001045e-04
  2.7329933e-03   2.2395914e-03
  3.3980478e-02   1.1742398e-03
 -6.9986875e-03   9.8113518e-04
 -2.8767840e-03   6.1893271e-04
 -1.4064236e-01   4.8465791e-04
 -3.3106062e-01   1.7915497e-04
  3.0749133e-02   1.8500304e-03
  3.9713089e-03   7.5245183e-04
  8.7383991e-01   5.7408714e-04
  1.0361981e-02   1.2259732e-03
 -1.2170828e-03   5.0088752e-04
  4.1773781e-01   6.3000298e-05
  3.6337241e-03   1.6139597e-03
  4.4235444e-01   1.3417883e-03
 -3.9405189e-02   2.4988389e-04
 -1.1414227e-03   6.4069562e-04
 -4.8396955e-03   4.3013992e-04
 -3.2876924e-01   1.1364286e-03
  1.3235074e-02   1.9668138e-03
  9.6593566e-02   2.9125746e-04
  2.5954410e-02   2.8319005e-04
 -8.9116953e-02   4.5864139e-04
  1.2317704e-01   4.2106869e-04
 -2.5837687e-03   1.3807139e-04
  1.9036971e-03   7.1458303e-04
  1.1786972e-01   8.7512168e-04
  1.9019514e-03   3.1583497e-04
  7.2620409e-03   9.5292396e-04
  5.8277029e-01   1.5831037e-04
  1.5631635e-01   1.0290828e-03
 -2.7769548e-01   1.6364481e-04
 -2.7776593e-01   1.8831146e-04
  9.3461825e-03   2.1553473e-03
  1.6044494e-03   3.0205221e-04
  7.9378334e-04   1.0923397e-03
 -1.0056583e-05   1.1696710e-03
  6.6883082e-04   5.4706028e-04
  9.0796809e-04   3.2355895e-04
 -2.1872481e-03   5.4337538e-04
 -1.6171370e-02   2.0694209e-04
 -2.9560188e-03   3.5158871e-04
 -2.7162079e-03   4.0392135e-04
 -1.6321737e-04   1.0011909e-03
  2.1831165e-03   7.4316125e-04
  1.5386797e-03   1.3238120e-04
 -2.2505687e-03   2.2986389e-03
  3.1165583e-03   8.2737871e-04
 -1.0486574e-02   6.4445357e-04
 -2.4852543e-03   5.2633527e-04
  5.2563119e-04   7.5952725e-05
  3.1582273e-03   5.5666955e-04
  3.1472759e-03   1.3182344e-03
  6.0676952e-04   2.4255867e-04
 -6.7395195e-03   1.4770150e-03
  5.1976983e-03   1.0716255e-03
 -5.7476875e-03   1.6539479e-03
  5.9767754e-04   6.5470906e-04
  6.1876876e-03   1.6252722e-03
  7.6979928e-04   1.3300107e-04
 -2.2864081e-03   5.8725075e-04
 -4.3161642e-03   2.2721640e-03
  3.1467045e-03   6.5647875e-04
 -1.7635258e-03   1.6769652e-04
  6.4820405e-03   3.6708789e-04
 -1.7978075e-03   5.8858091e-04
  4.3960405e-03   2.0318539e-03
 -8.6476812e-03   5.1857682e-04
  9.1654658e-03   4.5584387e-04
  4.1118938e-02   2.2160762e-05
  9.7023338e-02   9.0678062e-05
 -1.6644584e-02   4.3421169e-05
  2.5982541e-01   1.5020906e-04
  4.8538260e-03   5.0070038e-04
  1.5150761e-02   1.5979497e-04
 -3.0497031e-03   4.3349329e-04
  7.1551008e-03   1.1811360e-03
 -6.3921571e-02   3.7544142e-04
 -4.9994462e-03   1.4581203e-03
  2.3188111e-01   4.1887071e-04
  1.6735853e-01   2.7503629e-04
  7.4874572e-03   2.8373886e-04
  1.7756425e-01   1.0355090e-04
  5.0801384e-01   1.2605460e-04
  7.0757145e-01   8.9295019e-05
  3.9913189e-01   3.0016169e-04
  3.3625269e-01   6.7119789e-04
 -1.5166206e+00   3.3711075e-04
 -9.7606033e-03   1.1448219e-04
 -4.9531192e-01   4.8819860e-04
 -2.4858527e-03   2.2410051e-04
  3.4066817e-01   2.3000872e-04
  2.4759009e-01   2.7118454e-04
  2.0734860e-02   2.7633330e-04
  9.1133890e-04   5.8941491e-04
 -1.7903078e-01   4.9153017e-04
  9.8789409e-03   2.9070681e-04
 -8.7651759e-03   3.1500706e-05
  2.5271758e-01   5.4482801e-04
 -1.0283254e+00   1.3064411e-04
  8.2159173e-01   4.2270691e-04
  3.8627085e-01   1.9590957e-04
  7.4146375e-02   6.0826482e-04
 -7.2201729e-01   2.3751955e-04
  2.3729165e-01   1.3393103e-04
  2.8933167e-01   4.5093857e-05
 -5.0336665e-01   1.1478274e-04
 -7.2874278e-02   7.2410381e-05
  3.3736166e-01   3.3442229e-05
  1.0093799e-01   2.7066835e-03
  6.6478640e-01   7.0937676e-04
 -2.0801266e-01   7.4057840e-05
 -1.1053748e-01   2.6073671e-04
 -4.4816378e-01   1.9070336e-04
 -1.1428063e+00   3.5950265e-04
  7.5478174e-02   9.0850808e-05
  9.3538648e-01   3.3097505e-04
 -8.3625525e-01   2.7402231e-04
  2.8021067e-01   4.3368788e-04
 -4.1685146e-03   1.1373589e-04
  7.5834163e-02   1.4015326e-04
  2.7390927e-02   1.0616097e-03
  5.6034106e-01   2.2543593e-04
 -6.5177464e-01   3.7239832e-04
 -3.7661409e-01   2.5075465e-04
 -3.7962413e-01   3.9999286e-04
 -6.2257433e-01   1.8062255e-04
  1.1715782e-01   2.8049486e-04
  1.0130308e+00   9.9098048e-05
  5.6405860e-01   8.7900000e-04
 -1.5990140e-01   5.9342844e-04
  1.0534047e-02   2.0491448e-04
  3.1933624e-01   5.7609570e-05
 -6.8290943e-01   3.2713366e-04
  2.3847668e-01   9.5814918e-05
 -2.1541351e-01   2.4295156e-04
  4.8618975e-01   1.2205128e-04
  1.1782987e-01   1.0019093e-03
  2.8104091e-01   1.0630995e-03
 -5.6150037e-01   2.4271131e-04
 -1.7427285e-01   8.0466154e-05
 -1.1365275e+00   2.0727899e-04
  1.2105864e+00   8.3031984e-05
 -4.1954078e-02   8.3343599e-05
  8.3063729e-03   1.9424802e-04
  1.3387957e-01   4.8393974e-04
  1.6109969e-01   3.5630440e-04
 -5.1292531e-02   4.9071253e-04
 -2.2384079e-02   6.7907607e-04
 -1.1645157e+00   3.2666174e-04
 -4.8389283e-01   1.1540612e-04
 -6.9416156e-03   5.8242906e-04
  5.1051033e-01   6.1605527e-04
 -1.7279569e+00   2.4850902e-04
 -2.3911226e-01   1.4526224e-04
 -1.4601932e-01   5.1178131e-04
 -1.9190525e-01   1.8348584e-04
  4.5305192e-01   2.0386899e-04
  1.2246150e+00   1.3603282e-04
 -3.7420365e-01   4.4374265e-05
 -3.8451198e-02   4.4157240e-04
 -6.5691018e-01   5.6316913e-04
 -1.9595040e-01   8.0302451e-04
  1.1376414e-03   3.9882635e-04
  2.9876304e-01   2.2252568e-04
  2.2308378e-01   4.0081909e-04
  5.4868244e-02   3.2356333e-05
 -1.7150113e-04   1.0436746e-04
  2.3320344e-01   1.9237021e-04
  7.5348513e-04   1.1725807e-04
  7.7804446e-01   1.3983138e-04
  9.7803101e-02   9.9125362e-05
 -5.9122193e-01   3.3108817e-04
  8.1843324e-02   7.7596836e-05
  8.3965570e-01   1.1351315e-04
  1.6268775e-01   3.2638645e-04
 -4.1817966e-01   6.9182803e-05
  4.3456242e-03   2.5896814e-03
  3.2297731e-03   3.2364461e-04
 -1.3662478e-02   5.9666357e-04
 -1.9842435e-03   2.3271452e-04
 -1.7167986e-04   1.4360124e-04
 -8.7152654e-04   1.1503223e-03
  5.2742753e-03   1.7593340e-03
 -4.8432942e-04   1.0885942e-03
 -1.6398524e-03   5.3038262e-04
  3.9873500e-03   2.9801493e-04
  5.0844713e-03   7.9297659e-04
 -1.7917613e-03   5.5667321e-04
 -5.9855022e-03   1.1686004e-03
 -2.5063716e-03   2.2078633e-04
  2.1872837e-03   1.4445318e-04
  1.4523569e-03   1.1095264e-03
 -4.9026040e-03   3.4109748e-04
  4.3535000e-04   9.0542738e-04
 -7.0091401e-04   6.8985956e-04
 -4.2892713e-03   1.0084367e-03
 -1.9762870e-03   1.6085303e-03
  1.3871922e-03   1.9270735e-04
 -1.7441335e-03   1.0693501e-03
  7.3290067e-03   1.1349091e-03
  8.3998393e-04   2.5433683e-04
 -6.0436875e-03   1.3488983e-03
 -2.9483251e-03   3.4167932e-04
 -5.8055052e-04   1.9954656e-04
  1.4740519e-03   1.5637490e-04
  2.8391270e-04   4.7594885e-04
 -4.4237496e-03   5.7953212e-04
  9.3748426e-04   4.4014817e-04
  8.7425858e-03   4.3791448e-04
 -2.1259414e-03   4.7064605e-04
 -2.5975213e-03   8.6629699e-04
  4.3901848e-05   4.0669253e-04
 -7.5650017e-04   9.0586726e-04
 -8.1897664e-01   1.3415657e-04
 -9.8412775e-04   2.1291879e-04
  1.8576161e-03   1.3063548e-03
 -1.6189026e-02   3.2231340e-04
 -9.6102409e-02   2.9189561e-03
  2.4452147e-03   4.6918052e-04
  3.5610723e-03   1.2195357e-03
  3.8573507e-04   8.5067021e-04
 -7.7151442e-01   3.0612238e-04
  2.5000088e-03   3.3851876e-04
  6.0036895e-03   3.1287369e-04
 -1.1150839e-03   4.4674447e-04
 -9.0554172e-01   9.1014183e-05
  1.0173638e-02   1.0004761e-03
 -2.3852880e-03   6.1481941e-04
 -1.7533700e-03   4.8459866e-04
  8.2790151e-02   5.0323433e-04
  5.5089407e-03   8.3619071e-04
  8.5360622e-03   8.0676685e-04
  2.9648116e-04   5.4921303e-04
 -3.6162400e-01   8.2559847e-05
  2.0066160e-03   1.6650810e-03
  2.9547466e-03   4.1768781e-05
 -7.0427442e-03   7.3569448e-04
 -5.2037960e-01   2.9150841e-03
 -2.2373875e-03   3.6960814e-04
  2.2468227e-03   8.0405764e-04
 -1.3721125e-02   3.3277390e-04
 -5.0088819e-02   9.5669726e-05
 -1.6293151e-03   9.5163163e-04
  1.1177383e-03   1.7480181e-04
 -4.7939904e-03   1.2701524e-03
 -1.8147343e-01   1.0550766e-04
 -4.3274689e-04   1.6561446e-04
 -4.3360218e-03   3.9896890e-04
  3.1703468e-03   9.5942809e-04
 -1.2142018e-02   3.6413921e-04
 -7.6037800e-01   5.0492142e-04
  1.6396431e-02   5.9766239e-03
 -3.4841308e-03   1.2873056e-03
  1.1243848e-03   5.6466367e-04
 -5.5837920e-03   5.9524586e-04
 -1.4543829e-04   5.3505419e-04
  2.3366516e-03   6.1096408e-04
 -5.4056884e-04   8.4775052e-04
 -3.3829403e-01   8.8132988e-04
  2.3635937e-02   3.7597509e-03
 -1.8453494e-03   2.3099837e-04
  1.8758138e-03   6.6335325e-04
 -8.7041177e-02   6.9394126e-04
 -1.1296148e-03   4.0485174e-04
 -2.3854789e-03   1.5464436e-03
  9.1025066e-03   5.9619523e-04
 -7.4143261e-01   1.0936280e-03
  2.3472600e-03   5.0570094e-04
 -5.1887091e-03   3.2792223e-04
 -1.2156573e-03   4.4018714e-04
 -4.6991009e-01   1.1183504e-04
  1.0623877e-02   7.8371709e-04
 -6.6377339e-04   8.8182138e-04
  3.6747025e-03   2.7746477e-04
 -6.5896398e-01   3.5980821e-03
 -7.5002859e-04   4.6036358e-04
  9.9759037e-04   1.6948094e-03
  6.5353507e-04   5.0561846e-04
 -6.6267228e-01   1.4704966e-04
  1.8283391e-02   3.3919911e-03
  2.1954242e-03   1.1962550e-03
 -3.5618790e-03   9.1742555e-04
 -1.7255902e-01   7.2622026e-04
 -3.7285083e-03   5.5070741e-05
 -1.2191470e-03   1.0653859e-03
  4.6698943e-01   1.8326160e-04
  6.6980642e-01   5.3119188e-04
 -3.1304227e-03   2.9939138e-03
 -4.1925786e-03   1.5671510e-04
 -1.6857983e-04   6.5389881e-04
  1.5836999e-04   7.7066646e-04
 -5.1295897e-03   2.3053639e-04