2
Config_type=Cu_static-calc Weight=1.0 Lattice="3.155734316 0.599675484 -0.701986499 -0.758236990 2.779860728 -0.162320058 0.086837300 0.648871474 3.603476546" Energy=-6.4893825200 Virial="-3.59066 0.02951 0.58043 0.02951 -4.10300 -0.13244 0.58043 -0.13244 -3.58745" pbc="T T T" Properties=species:S:1:pos:R:3:forces:R:3
Cu	      0.00000      0.00000      0.00000        -0.000000     -0.000000     -0.000000
Cu	      1.24217      2.01420      1.36959         0.000000      0.000000      0.000000
8
Config_type=C_diamond_PBE-MBD_optimization Weight=1.0 Lattice="3.555999994 0.000000000 0.000000000 0.000000000 3.555999994 0.000000000 0.000000000 0.000000000 3.555999994" Energy=-74.5190353700 Virial="0.15207 -0.00000 0.00000 -0.00000 0.15207 -0.00000 0.00000 -0.00000 0.15207" pbc="T T T" Properties=species:S:1:pos:R:3:forces:R:3
C	      0.00000      0.00000      0.00000        -0.000000     -0.000000     -0.000000
C	      0.00000      1.77800      1.77800        -0.000000      0.000000     -0.000000
C	      1.77800      1.77800      0.00000        -0.000000      0.000000     -0.000000
C	      1.77800      0.00000      1.77800        -0.000000     -0.000000     -0.000000
C	      2.66700      0.88900      2.66700         0.000000     -0.000000      0.000000
C	      0.88900      0.88900      0.88900         0.000000      0.000000      0.000000
C	      0.88900      2.66700      2.66700         0.000000     -0.000000      0.000000
C	      2.66700      2.66700      0.88900         0.000000     -0.000000      0.000000
8
Config_type=C_diamond_PBE-MBD_optimization Weight=1.0 Lattice="3.559261050 0.000000000 0.000000000 -0.000000000 3.559261050 0.000000000 0.000000000 -0.000000000 3.559261050" Energy=-74.5191165100 Virial="-0.19600 0.00000 -0.00000 0.00000 -0.19600 0.00000 -0.00000 0.00000 -0.19600" pbc="T T T" Properties=species:S:1:pos:R:3:forces:R:3
C	     -0.00000     -0.00000     -0.00000        -0.000000      0.000000     -0.000000
C	     -0.00000      1.77963      1.77963        -0.000000     -0.000000     -0.000000
C	      1.77963      1.77963      0.00000        -0.000000      0.000000      0.000000
C	      1.77963     -0.00000      1.77963         0.000000      0.000000     -0.000000
C	      2.66945      0.88982      2.66945         0.000000      0.000000      0.000000
C	      0.88982      0.88982      0.88982         0.000000     -0.000000     -0.000000
C	      0.88982      2.66945      2.66945         0.000000     -0.000000      0.000000
C	      2.66945      2.66945      0.88982         0.000000     -0.000000      0.000000
8
Config_type=C_diamond_PBE-MBD_optimization Weight=1.0 Lattice="3.558090375 0.000000000 0.000000000 -0.000000000 3.558090375 0.000000000 0.000000000 -0.000000000 3.558090375" Energy=-74.5191932500 Virial="-0.07073 0.00000 -0.00000 0.00000 -0.07073 0.00000 -0.00000 0.00000 -0.07073" pbc="T T T" Properties=species:S:1:pos:R:3:forces:R:3
C	     -0.00000     -0.00000     -0.00000         0.000000      0.000000      0.000000
C	     -0.00000      1.77905      1.77905         0.000000      0.000000      0.000000
C	      1.77905      1.77905      0.00000        -0.000000      0.000000      0.000000
C	      1.77905     -0.00000      1.77905         0.000000      0.000000      0.000000
C	      2.66857      0.88952      2.66857        -0.000000     -0.000000     -0.000000
C	      0.88952      0.88952      0.88952         0.000000     -0.000000     -0.000000
C	      0.88952      2.66857      2.66857        -0.000000     -0.000000     -0.000000
C	      2.66857      2.66857      0.88952        -0.000000     -0.000000     -0.000000
8
Config_type=C_diamond_PBE-MBD_optimization Weight=1.0 Lattice="3.557426768 0.000000000 0.000000000 -0.000000000 3.557426768 0.000000000 0.000000000 -0.000000000 3.557426768" Energy=-74.5191880400 Virial="-0.00108 0.00000 0.00000 0.00000 -0.00108 -0.00000 0.00000 -0.00000 -0.00108" pbc="T T T" Properties=species:S:1:pos:R:3:forces:R:3
C	     -0.00000     -0.00000     -0.00000         0.000000      0.000000      0.000000
C	     -0.00000      1.77871      1.77871        -0.000000      0.000000     -0.000000
C	      1.77871      1.77871      0.00000         0.000000      0.000000     -0.000000
C	      1.77871     -0.00000      1.77871        -0.000000      0.000000     -0.000000
C	      2.66807      0.88936      2.66807         0.000000     -0.000000      0.000000
C	      0.88936      0.88936      0.88936        -0.000000     -0.000000      0.000000
C	      0.88936      2.66807      2.66807         0.000000     -0.000000      0.000000
C	      2.66807      2.66807      0.88936        -0.000000     -0.000000     -0.000000
8
Config_type=C_diamond_PBE-MBD_optimization Weight=1.0 Lattice="3.557416517 0.000000000 0.000000000 -0.000000000 3.557416517 0.000000000 0.000000000 -0.000000000 3.557416517" Energy=-74.5191888500 Virial="-0.00055 0.00000 -0.00000 0.00000 -0.00055 0.00000 -0.00000 0.00000 -0.00055" pbc="T T T" Properties=species:S:1:pos:R:3:forces:R:3
C	     -0.00000     -0.00000     -0.00000        -0.000000     -0.000000     -0.000000
C	     -0.00000      1.77871      1.77871        -0.000000      0.000000      0.000000
C	      1.77871      1.77871      0.00000        -0.000000      0.000000     -0.000000
C	      1.77871     -0.00000      1.77871        -0.000000     -0.000000      0.000000
C	      2.66806      0.88935      2.66806         0.000000     -0.000000     -0.000000
C	      0.88935      0.88935      0.88935         0.000000      0.000000     -0.000000
C	      0.88935      2.66806      2.66806         0.000000     -0.000000      0.000000
C	      2.66806      2.66806      0.88935         0.000000      0.000000      0.000000
8
Config_type=C_diamond_PBE-MBD_optimization Weight=1.0 Lattice="3.557405823 0.000000000 0.000000000 -0.000000000 3.557405823 0.000000000 0.000000000 -0.000000000 3.557405823" Energy=-74.5191882600 Virial="0.00063 0.00000 0.00000 0.00000 0.00063 -0.00000 0.00000 -0.00000 0.00063" pbc="T T T" Properties=species:S:1:pos:R:3:forces:R:3
C	     -0.00000     -0.00000     -0.00000         0.000000     -0.000000      0.000000
C	     -0.00000      1.77870      1.77870         0.000000     -0.000000      0.000000
C	      1.77870      1.77870      0.00000         0.000000     -0.000000      0.000000
C	      1.77870     -0.00000      1.77870         0.000000      0.000000      0.000000
C	      2.66805      0.88935      2.66805        -0.000000      0.000000     -0.000000
C	      0.88935      0.88935      0.88935        -0.000000      0.000000     -0.000000
C	      0.88935      2.66805      2.66805        -0.000000      0.000000     -0.000000
C	      2.66805      2.66805      0.88935        -0.000000      0.000000     -0.000000
8
Config_type=C_diamond_PBE-MBD_optimization Weight=1.0 Lattice="3.557411515 0.000000000 0.000000000 -0.000000000 3.557411515 0.000000000 0.000000000 -0.000000000 3.557411515" Energy=-74.5191877300 Virial="0.00034 -0.00000 0.00000 -0.00000 0.00034 0.00000 0.00000 0.00000 0.00034" pbc="T T T" Properties=species:S:1:pos:R:3:forces:R:3
C	     -0.00000     -0.00000     -0.00000         0.000000      0.000000      0.000000
C	     -0.00000      1.77871      1.77871        -0.000000     -0.000000      0.000000
C	      1.77871      1.77871      0.00000         0.000000     -0.000000     -0.000000
C	      1.77871     -0.00000      1.77871         0.000000     -0.000000     -0.000000
C	      2.66806      0.88935      2.66806        -0.000000      0.000000     -0.000000
C	      0.88935      0.88935      0.88935        -0.000000      0.000000      0.000000
C	      0.88935      2.66806      2.66806        -0.000000      0.000000      0.000000
C	      2.66806      2.66806      0.88935         0.000000     -0.000000     -0.000000
8
Config_type=C_diamond_PBE-MBD_optimization Weight=1.0 Lattice="3.557413433 0.000000000 0.000000000 -0.000000000 3.557413433 0.000000000 0.000000000 -0.000000000 3.557413433" Energy=-74.5191881400 Virial="0.00002 -0.00000 0.00000 -0.00000 0.00002 -0.00000 0.00000 -0.00000 0.00002" pbc="T T T" Properties=species:S:1:pos:R:3:forces:R:3
C	     -0.00000     -0.00000     -0.00000        -0.000000      0.000000     -0.000000
C	     -0.00000      1.77871      1.77871        -0.000000     -0.000000     -0.000000
C	      1.77871      1.77871      0.00000        -0.000000      0.000000     -0.000000
C	      1.77871     -0.00000      1.77871        -0.000000      0.000000     -0.000000
C	      2.66806      0.88935      2.66806         0.000000     -0.000000      0.000000
C	      0.88935      0.88935      0.88935         0.000000      0.000000      0.000000
C	      0.88935      2.66806      2.66806         0.000000     -0.000000      0.000000
C	      2.66806      2.66806      0.88935        -0.000000      0.000000      0.000000
