 -6.0834020e-01   2.2723822e-02
 -1.2388134e+00   9.3902126e-03
  3.0714667e-01   2.3726890e-02
  2.9319797e+00   1.8870825e-02
 -2.0456734e+00   1.2404800e-02
  2.2300839e-01   1.7738063e-02
 -1.7056863e-01   3.7691663e-03
  5.7864219e-02   1.2237921e-01
 -1.7144716e+00   5.8307063e-02
  9.6062613e-01   5.7097856e-02
  9.8888081e-01   3.1982484e-01
 -1.7643110e-01   4.4698447e-02
 -6.1132687e-01   1.2244248e-01
 -4.5093837e+00   6.5352641e-02
  3.2956467e+00   1.4283825e-01
  2.6473501e-01   6.4312272e-02
  6.6657734e-01   2.2639938e-01
 -9.5634079e-01   4.5758411e-02
 -3.2919319e+00   1.1859134e-02
 -4.1720384e-01   1.6409533e-01
  3.9526854e+00   6.4300336e-02
  2.7176251e+00   5.4877806e-02
 -8.2406980e-01   5.6494579e-02
  1.0185844e+00   8.2450673e-02
  1.0969286e+00   2.9783593e-02
 -3.5138088e-01   6.4007387e-02
  1.1671735e+00   6.5932207e-02
 -2.0663605e+00   6.2544942e-02
 -7.1215516e-01   6.6095695e-02
 -6.3307780e-01   1.0065896e-01
  5.8140349e-01   2.3510577e-01
 -5.4233742e+00   2.3062654e-02
  1.0691713e+00   1.3733557e-01
 -6.3270813e-01   2.6893860e-02
  1.9198785e+00   1.2115244e-01
  6.9910991e-01   5.0644326e-01
 -7.2879851e-01   5.7227686e-02
 -1.5263714e+00   2.0222375e-01
 -6.3624001e-01   6.4293370e-02
  1.9319215e+00   2.5178772e-01
 -7.4731745e-02   2.3990931e-01
  5.4672176e-01   1.3568185e-01
 -1.8980540e-01   2.1602370e-01
  2.4721978e+00   2.7387263e-02
  9.6256816e-01   2.8570536e-01
  6.0316086e-01   3.3868450e-01
  1.2451968e+00   2.2020914e-01
  2.5093160e+00   5.5293601e-02
 -1.0927149e+00   6.4485103e-02
 -7.2140115e-01   1.3224702e-02
 -2.3049397e+00   3.7899423e-02
  5.4825979e-01   3.8626499e-02
 -3.4564883e-01   5.8537908e-02
 -8.2996480e-02   9.1892898e-02
 -1.6751001e+00   1.9809265e-02
 -4.2492306e-01   1.6702826e-01
  9.1609257e-01   1.6862200e-01
  6.2936050e-01   4.5254856e-02
  3.9409572e-01   4.1258901e-02
 -3.1517830e-01   1.1801559e-01
  1.6631399e+00   9.6873827e-03
  1.4361230e+00   1.0756590e-01
  4.4395700e-01   3.1370461e-01
 -4.2131364e-01   5.4820374e-02
 -6.4281678e-01   1.3482870e-01
 -4.4738674e-01   1.2623948e-01
 -1.0441229e+00   1.8184216e-01
  1.5627365e+00   2.8629243e-02
 -1.7221259e-01   2.4367690e-01
  7.5900853e-01   2.4727914e-01
 -5.5680090e-01   2.8651310e-02
  2.0333812e+00   4.3692302e-02
  1.2663122e+00   1.1555619e-01
 -9.4677842e-01   7.6218262e-02
 -2.1917641e+00   1.0845793e-02
 -1.2405555e+00   7.6390065e-02
  2.7772680e-01   7.3010691e-02
  4.2668852e-01   4.2474315e-02
  6.8442619e-01   1.1818051e-01
  5.9488624e-02   7.7996887e-03
 -4.5266047e-01   5.1063791e-02
  9.0203434e-01   1.3093799e-02
  1.1404081e-01   5.0768550e-02
 -5.8049011e-01   1.4618155e-01
 -2.5352633e+00   3.8830463e-02
 -7.5636303e-01   1.2189701e-01
 -1.1341009e+00   4.4701293e-02
  8.3414710e-01   2.9494092e-02
  5.4915732e-01   1.1721299e-02
 -1.8587403e-01   1.0427415e-01
  1.1186782e+00   2.8074118e-01
 -9.8853314e-01   1.2568519e-01
 -2.2955054e-01   3.7917942e-01
 -5.6251578e+00   7.1669541e-02
  7.4384934e-01   6.7693144e-02
  1.2813786e+00   3.3258904e-02
 -1.2689033e+00   1.3764203e-01
  2.4670215e+00   1.0964016e-01
 -2.0805830e-01   3.1064143e-02
 -2.1223514e-01   2.9465342e-02
 -8.0423057e-02   5.9070010e-02
 -1.8273766e+00   1.8284963e-02
 -2.6724029e-01   7.2994538e-02
  1.5371577e-01   8.9812338e-02
  2.1693495e-01   1.5507603e-01
  3.3656824e+00   1.2479369e-01
  1.1968753e+00   3.3707004e-02
  2.5920097e-02   3.9459746e-02
  3.1679711e+00   2.7883157e-02
  2.0587068e+00   3.0044386e-02
 -1.6894814e-01   2.9955558e-02
  2.1973488e+00   3.5387240e-02
  1.5498773e+00   3.3072978e-02
  1.0335037e+00   1.8847069e-02
  1.0041360e+00   4.5651350e-02
 -1.1930100e+00   3.0462542e-01
 -1.0424563e+00   4.4501081e-02
  7.5700271e-01   1.0037776e-01
 -1.5425360e+00   5.9946679e-02
  1.0382698e+00   1.4996623e-01
 -9.3256223e-01   1.0058936e-01
 -1.7201838e+00   2.9956162e-01
  3.4064345e+00   1.0992051e-01
  3.4197693e+00   1.3871107e-01
 -1.5034962e+00   1.1198445e-01
 -8.7382481e-02   2.3007365e-02
 -8.1185645e-01   3.6968164e-02
  2.4747118e-01   7.0338979e-02
 -9.4406354e-01   3.2557845e-02
 -5.8931291e-01   2.0061580e-02
 -6.9155830e-01   2.4401909e-01
  2.0423067e+00   6.3729882e-02
 -7.6111436e-02   2.2861895e-01
 -1.1425041e-01   5.7784664e-03
  1.1021012e+00   1.7737578e-01
  3.2361719e-01   9.4137952e-02
 -1.1775016e+00   6.6662796e-02
 -1.4306685e-01   4.1651122e-02
 -5.5533546e-01   3.2608458e-01
  3.3650448e+00   3.6080029e-02
  1.4473866e+00   3.9860210e-01
 -1.9730940e-01   1.7969169e-01
  1.0019425e-01   2.0850878e-02
 -3.2227111e+00   4.0606916e-02
 -3.0530438e-01   1.4167295e-01
  1.8203756e-01   4.4445883e-02
 -2.7118621e+00   7.2908930e-02
 -2.3150755e-01   5.7901811e-02
 -7.8261554e-01   3.9604571e-02
  5.5415028e-01   2.9759437e-02
 -1.2813263e+00   9.4281040e-02
  7.1672186e-02   2.8683642e-01
  7.4904543e-01   6.9338769e-01
 -2.4082360e+00   9.8534115e-02
 -3.5658580e-01   5.9776653e-02
 -1.0566138e+00   1.0021120e-01
 -1.8044241e-02   4.2016932e-01
 -1.7003950e+00   4.5066360e-02
 -1.1005011e+00   6.3847199e-02
  5.3401142e-01   1.2947331e-01
 -4.5987090e-01   9.5850684e-02
  1.6386476e+00   1.1412006e-01
  8.7781501e-01   3.8955577e-02
 -4.6491519e-01   5.5902340e-02
 -1.7409976e+00   9.4134457e-02
  6.2548256e-01   1.7605504e-01
 -1.0777752e+00   4.6457492e-02
  7.6394248e-01   2.1995798e-02
  2.5678790e-01   7.8695878e-02
  2.0894538e-01   3.4280586e-01
  3.2341889e-01   1.3355950e-01
 -1.1350732e+00   1.8900086e-01
 -8.2060963e-01   1.6264980e-01
  2.2690694e+00   2.7778938e-02
  3.5985262e+00   4.9600016e-02
 -2.6147931e+00   5.2969668e-02
 -1.2379645e+00   1.0990111e-02
  1.2545243e-01   1.0013216e-01
 -1.6713799e+00   3.1497557e-02
  1.9053003e-01   3.6758982e-02
  6.5519118e-01   7.8910060e-02
  5.3082240e-01   3.4507014e-02
 -5.8875602e-01   2.9589504e-01
  1.4622034e+00   1.8612477e-01
  8.6610365e-01   5.5431135e-02
 -9.9508941e-01   2.4239801e-01
  3.5864455e-01   5.9014302e-02
 -2.1728828e+00   9.8507531e-02
  8.2686454e-02   8.1425443e-02
 -1.5889595e-01   2.8920719e-02
 -2.1428518e+00   3.7870310e-02
 -4.8959577e-01   4.3560040e-01
 -3.6815315e-01   1.4481610e-01
 -4.0045094e-01   5.6117281e-02
 -5.7641643e-01   2.7770784e-01
 -8.7067974e-01   1.7787594e-01
 -4.4237936e-01   3.8357195e-01
 -2.9237905e+00   2.3943629e-02
  1.6687863e-01   2.5847101e-01
 -2.8616467e+00   1.3012862e-01
 -6.7222047e-01   1.0573588e-01
  1.5949498e+00   3.0863968e-01
  1.8960373e+00   6.1964616e-02
  6.5929788e-01   7.2100885e-02
 -9.5179188e-01   5.4124810e-02
  2.2138271e-02   8.9477800e-02
  2.0281477e-01   2.7164303e-02
  5.1718092e-01   1.6107526e-01
 -2.1561706e-01   1.4291175e-01
 -1.8862869e+00   6.4294524e-02
  1.7551819e+00   2.1248356e-02
  8.0061293e-01   4.5561668e-02
 -1.7877579e+00   4.8972447e-03
 -1.0932688e+00   1.6924189e-02
  2.4105508e+00   3.5157878e-02
  2.3278461e+00   1.7644219e-02
  7.2977287e-01   3.3920027e-02
  1.0925662e-01   4.0961590e-02
  7.3011303e-01   1.9446348e-01
 -1.1437895e+00   1.6581166e-01
  3.6308244e-02   1.4570796e-01
  1.0529777e+00   2.4634854e-01
  5.7371134e-01   7.1018390e-02
  3.3643777e+00   8.5838713e-02
 -3.7671632e-01   7.3562473e-02
  5.1853329e-01   5.3056538e-02
 -3.5255903e-01   2.1681613e-01
 -1.3269306e+00   2.1307424e-02
 -3.1530309e+00   6.5336935e-02
  1.4579974e+00   1.4754440e-01
  2.9348293e-01   1.2905630e-01
  1.2649456e+00   1.6828239e-01
 -1.4797636e+00   4.7749344e-01
  3.1637082e+00   3.8541909e-02
 -2.8881938e+00   5.7047311e-02
  2.6572523e+00   1.1058922e-01
 -9.4117612e-01   1.8229388e-02
 -2.4883726e+00   6.4792685e-02
 -1.6844428e-01   4.6708636e-02
  6.8151456e-01   9.1036884e-03
  3.1865528e+00   6.9371074e-02
  6.2121296e-01   3.1544965e-02
  2.0544255e+00   6.7419894e-02
 -3.0197430e-01   1.4172821e-01
  1.1458574e-04   1.5135571e-01
  9.2909575e-01   1.9627856e-02
 -8.8855582e-01   1.6738715e-03
 -1.0497301e+00   4.5252377e-03
 -9.3326998e-01   3.5421355e-03
 -9.4276756e-01   2.7619414e-03
 -8.8143075e-01   2.7940981e-03
 -1.4971272e+00   3.8054700e-03
 -1.3864036e+00   4.5782480e-02
 -8.4643787e-01   4.4253562e-02
  6.1174268e-01   1.3059397e-01
  2.6630498e-03   1.0636705e-01
  3.6357346e-01   5.1823072e-02
 -3.6837524e-01   5.4603174e-02
 -2.5054955e+00   2.8190430e-02
 -1.0290103e+00   2.4828915e-02
 -3.3190498e+00   3.2965429e-02
  3.1622112e+00   2.4335213e-02
 -3.2439830e+00   4.0874247e-02
 -6.1204195e+00   2.7503138e-02
 -3.5140257e+00   8.0543846e-02
  2.1052370e+00   2.9007886e-02
 -3.6260819e-01   2.8505979e-02
  1.9691757e+00   6.0438901e-02
 -7.2711229e-01   5.5520080e-02
 -1.0115178e-01   8.1411516e-03
  1.5221585e+00   5.0044414e-02
  8.4678304e-01   1.6192848e-02
 -2.3996735e+00   3.3101320e-02
 -8.1249052e-01   4.6316225e-02
 -6.7047882e-01   4.5113508e-02
 -3.1686418e+00   4.7238071e-02
  2.1328831e+00   9.1449264e-03
 -8.3642656e-01   5.5522274e-02
 -8.3112699e-01   3.7663359e-02
  1.1417643e+00   6.8460647e-03
  5.6096059e-01   1.9683158e-02
  2.2630193e+00   1.1765194e-02
 -1.5256326e+00   6.1163912e-03
  2.9517756e+00   8.1081996e-03
 -1.4809620e+00   1.3794274e-02
 -9.3377054e-01   7.7375066e-03
 -5.6508476e-01   7.5225262e-03
  1.3809080e+00   3.4566712e-02
  6.0483724e-01   6.1560102e-02
  1.4848746e+00   8.3182238e-02
 -2.9299035e+00   8.7908238e-02
 -2.3708136e+00   6.5492697e-02
 -3.4473220e-01   8.0935583e-02
 -7.4107170e-01   2.6868479e-02
  1.5496822e-01   3.2663159e-02
 -8.3515483e-01   8.8481881e-02
  2.1150162e+00   6.9262318e-02
  3.5512853e-01   9.1306254e-02
  1.5812717e-02   9.1568105e-02
 -1.3621223e+00   9.7627215e-02
  3.4711206e-01   8.3887838e-02
  3.9575009e+00   6.5469481e-02
  2.4595761e+00   1.0510670e-02
  7.1200877e-02   9.0545438e-02
 -6.7478991e-01   1.3662099e-02
  1.2866244e+00   3.9303474e-02
 -1.7689472e+00   6.4354785e-02
  5.3933732e-02   1.2206609e-02
  2.1731386e+00   4.1208077e-02
  1.4879999e+00   1.5864223e-02
 -2.2704065e+00   3.3253301e-02
  3.1751876e+00   2.7629267e-02
 -1.0186119e+00   3.4116086e-02
  1.1669246e+00   7.1747944e-02
  2.8099522e-01   8.2168719e-03
 -1.1065718e+00   4.5305472e-02
  3.8955812e+00   2.4451833e-02
  8.3410196e-02   3.0883746e-02
  1.6094890e+00   1.8762486e-02
  1.1551237e+00   4.1120280e-02
 -7.6271601e-02   3.1491019e-02
 -7.7460259e-01   1.4194651e-02
  7.5472677e-01   8.3351813e-02
  1.9479452e-01   1.1093175e-01
 -2.1929505e-01   2.4732523e-02
  4.3824136e-01   1.6453525e-01
  1.9415219e+00   5.4864213e-02
  3.7605673e-01   1.9338608e-01
  2.3009074e-01   1.7457159e-01
  4.4968867e-01   1.0143398e-01
 -2.2504003e+00   3.4317773e-02
  3.0664873e+00   5.2864704e-02
  8.4245151e-01   3.8161315e-02
 -3.6482698e-01   1.6028452e-01
 -1.6445414e+00   5.9508644e-02
  1.7250048e-01   1.1290463e-01
 -1.3935897e+00   1.6035779e-01
  1.3987774e+00   8.4843747e-02
  1.3004818e+00   5.3193022e-02
  5.1472580e-01   9.0694390e-02
 -1.2023016e+00   1.4110546e-01
 -1.9396269e+00   6.5077759e-02
  9.6169788e-01   1.3377097e-01
  6.5006006e-01   9.2620723e-02
  1.9127994e+00   2.1453325e-02
  7.2327837e-02   3.6909753e-01
  4.4733986e-01   1.0030201e-01
 -1.5482515e-01   1.5370843e-01
  1.2881258e+00   2.1030495e-01
 -9.9639595e-04   5.3361818e-02
 -3.8988313e-01   4.2477805e-02
  4.5931492e+00   1.2916990e-02
  6.0603172e-01   1.4655583e-02
 -1.5558509e+00   6.4007584e-03
  1.0135411e+00   1.0945762e-02
  8.8371676e-01   1.7089495e-02
 -1.8600124e+00   1.1683238e-02
 -2.2411714e+00   1.1128269e-01
 -1.1144255e+00   2.3188013e-01
  1.3762327e+00   1.2151071e-01
  2.7719233e+00   8.0213323e-02
  2.6626835e+00   2.1163706e-01
 -1.8498181e+00   1.0422291e-02
 -2.5311697e-01   1.6946288e-02
  9.0907371e-01   2.9638020e-02
 -1.9012200e+00   1.2885517e-01
 -1.0978100e+00   9.5649712e-02
 -5.2389622e+00   7.4637502e-02
  2.6524568e+00   9.0532497e-02
 -1.2632376e-01   1.8734401e-01
  1.4103078e+00   1.1365302e-01
 -2.7485830e-01   9.0377599e-02
 -2.2607870e+00   3.8721565e-02
  1.1083107e-01   2.1859912e-02
  1.9120808e+00   1.3986985e-02
  2.7907910e+00   6.5966167e-02
 -5.9484541e-01   1.0271741e-01
  3.4236689e+00   2.1207834e-02
 -6.7983824e-01   1.6829688e-02
 -1.7898457e+00   3.7743893e-02
 -2.0235860e-01   2.1497120e-01
  8.4459215e-01   2.5124876e-02
  3.2673207e-01   8.0797769e-02
  2.8495741e+00   1.0013479e-01
  1.5398149e+00   3.6861077e-02
 -5.1733243e-01   9.5741851e-03
  1.0479262e+00   5.3105215e-03
  1.6794991e+00   1.4635944e-02
 -1.1979064e+00   6.9340491e-03
  1.8245870e+00   4.7834758e-03
 -3.0018362e-01   1.3942109e-02
 -5.8874764e-02   3.3242039e-02
  2.6963258e+00   1.2973770e-02
 -2.9711967e+00   3.3233628e-02
 -1.6212690e+00   4.3742150e-02
 -4.4353306e-02   1.7360725e-02
 -1.0708562e+00   2.7410455e-02
 -1.1886776e-01   1.0083143e-01
 -2.0268503e-01   1.6154759e-02
  2.5478225e+00   2.4874544e-02
 -3.9846094e+00   3.4244630e-02
 -1.4516945e+00   1.0127502e-01
  2.4585685e-01   1.8901274e-02
  2.1001556e+00   6.6289566e-02
  1.4443830e-01   2.7101178e-02
 -5.8708674e-01   3.2221861e-02
 -3.8014671e-01   3.5117280e-02
  9.6933889e-01   1.0021520e-01
  4.6415472e-01   1.4976378e-02
 -1.2489296e+00   2.2155890e-02
  1.3600124e-01   1.0461642e-01
 -7.7742106e-01   3.7411407e-02
 -2.3748190e+00   5.8025297e-02
  2.2224103e-01   3.3864025e-02
 -6.2918258e-01   3.2097537e-02
 -2.7927570e+00   5.9370011e-02
 -1.4760630e+00   1.4040195e-02
 -6.4884323e-01   3.9719559e-02
  1.4011780e+00   9.5443567e-03
 -3.5562307e-01   3.1484324e-02
 -5.2436548e-01   2.3864947e-02
  7.3048073e-01   1.0574909e-02
 -2.1401689e+00   2.2692896e-02
  1.1032412e+00   1.3656124e-02
  1.3854008e+00   7.9960488e-03
 -3.2063725e+00   9.5209032e-03
 -2.4396083e+00   1.5662691e-02
 -9.3639314e-01   8.6234316e-02
  1.1799551e+00   5.6381550e-02
 -2.2640362e+00   3.2873534e-02
  3.1296306e+00   6.6066906e-02
  4.0480075e+00   3.4411579e-02
 -1.3729718e-01   2.3901891e-02
 -7.3746717e-01   3.0401485e-02
  1.3489765e+00   2.7308922e-02
  1.1151090e+00   1.0442626e-01
  5.4837239e-01   5.0209995e-02
  1.1322525e+00   6.5443933e-02
 -2.7494290e+00   7.4065842e-02
 -8.9934039e-01   2.8317189e-02
 -1.7282107e+00   7.8748897e-02
  3.4673575e-01   1.0033794e-01
  1.6515015e+00   6.1015956e-02
 -1.1569686e-01   6.0303573e-02
 -1.0593661e+00   2.7661905e-02
 -1.5416453e+00   1.0690817e-01
 -3.4825376e-01   4.6217404e-02
  1.2453383e+00   7.6170914e-02
  2.4711716e+00   2.2588868e-02
 -1.6520272e-01   7.4577719e-02
 -7.5762254e-01   8.6239576e-02
 -2.4822574e+00   9.0654418e-02
  2.6452050e-01   8.0904976e-02
 -1.0660697e+00   8.0351129e-02
 -7.4912667e-01   4.9073394e-02
  1.1957766e+00   1.9536413e-01
  1.8421449e-01   5.9715137e-02
  4.1723605e-02   9.3982555e-02
  8.5361397e-01   2.0306187e-02
  7.6963371e-01   3.0294662e-02
 -1.0893095e+00   6.7092534e-03
  3.2348970e-01   7.2020188e-02
 -4.6449588e-03   4.7834914e-02
 -8.8925207e-01   1.3368682e-02
  9.9448419e-01   1.0850573e-01
  7.3787570e-01   4.4278849e-02
 -1.0604910e+00   4.4618998e-02
  5.5452995e+00   8.6791798e-02
  4.1880050e-01   6.2009171e-02
  2.7881670e+00   2.8073740e-01
 -3.0320659e+00   1.3918313e-02
 -5.5950230e-01   1.9106100e-01
 -3.9929333e-01   2.2160734e-01
 -6.6046447e-01   1.8827237e-01
 -1.7283287e-02   1.5329729e-01
  2.1339975e-02   7.9497136e-02
 -4.7691584e-01   1.6493694e-01
 -8.1066698e-02   1.1474209e-02
  4.2283621e-01   2.2961903e-01
  2.4322858e+00   1.9998966e-01
  2.3719823e-01   4.8309579e-01
 -2.1462344e-01   4.1093715e-02
  1.6408689e+00   1.6518873e-01
 -9.6914333e-01   2.9601941e-01
 -3.3591805e+00   7.0795111e-02
  3.4416685e-01   1.6803376e-01
  1.6345483e+00   1.2796151e-02
 -2.9057424e+00   1.2134190e-01
  2.5226908e+00   7.1720757e-02
  5.3628892e-01   3.6805624e-01
  5.4294926e-01   1.8579729e-02
 -6.8436283e-01   8.0858823e-03
 -9.3284762e-01   7.0194039e-03
  1.8717686e+00   1.1850492e-02
  1.6352551e+00   5.6592063e-03
  6.8671995e-01   1.0905139e-02
  1.2807645e+00   1.1588317e-02
 -3.9075947e-01   1.1666776e-02
 -2.7225523e+00   6.0936842e-02
  1.6406420e+00   1.2614155e-01
 -8.6316478e-01   1.4321962e-01
  2.2226480e-01   1.4955176e-01
 -7.1006322e-01   1.4617816e-01
 -5.5444491e-01   4.7875803e-02
 -1.8601484e+00   6.5565847e-02
 -2.1788554e-01   4.8416954e-02
  1.9142203e-02   9.8149143e-02
  2.4432733e+00   5.6198314e-02
 -3.0165100e-01   6.5843411e-02
 -8.9502686e-01   7.4455835e-02
 -2.3466133e-01   6.0193833e-02
 -5.1948109e+00   8.2410097e-02
  5.1115710e-01   4.7378406e-02
  3.6034457e-02   6.5045066e-02
  1.4814272e+00   1.9213172e-02
  1.1110594e+00   4.0317353e-02
 -1.5569775e-01   8.3371475e-02
 -1.7364762e+00   4.4305064e-02
 -2.4461737e-01   3.2433044e-02
 -4.5302153e-01   3.6231812e-02
 -3.9089077e+00   4.7528662e-02
  9.5489013e-01   1.5361348e-02
 -1.2950797e+00   5.9415005e-02
 -1.4751474e+00   2.3410097e-02
 -4.8168343e-01   3.4174528e-02
  7.2022997e-02   4.3608181e-02
  1.2744687e-02   6.3812181e-02
  2.6785034e-01   1.1764067e-02
  4.5009533e-01   3.9578613e-02
 -1.3781133e-01   2.3168238e-02
  2.6757998e+00   8.4897481e-02
  3.3765435e+00   2.3094552e-02
  7.9849815e-01   1.6552144e-01
  2.3544038e-02   4.4365160e-02
 -1.2702802e-01   1.1750466e-01
  5.1790816e-01   3.9344177e-02
 -1.2328534e+00   1.1041458e-01
  1.4997957e+00   1.7419425e-01
  7.9621446e-01   1.3996589e-01
 -1.6541864e-01   4.2565659e-02
 -8.0786842e-01   1.0351056e-01
 -3.4658352e-01   1.7642380e-01
 -1.7839007e-01   1.2512186e-01
  4.8564591e-02   9.2018515e-02
  3.7742364e-01   7.0843622e-02
  2.4963443e+00   1.8905689e-01
 -1.8914411e+00   3.4965044e-01
 -2.3467612e+00   1.5890490e-02
  2.1111660e+00   8.4141575e-02
 -3.2941577e+00   8.6572580e-02
 -2.3477583e+00   1.2102184e-01
  1.4563859e+00   3.1579785e-02
 -4.4392109e-01   1.1777647e-01
 -1.0848606e+00   2.3578009e-01
 -4.7329021e-01   2.6597765e-01
  6.8975461e-01   3.2857096e-01
 -8.8750911e-01   1.7621121e-01
 -1.6341589e-01   7.3123351e-02
 -6.4941925e-01   5.1899951e-02
 -8.8917941e-02   4.6865314e-02
 -1.7656803e+00   4.4509955e-02
  2.7035816e+00   6.1264694e-02
  3.3999143e+00   6.5206207e-02
 -6.4175487e-02   4.2393107e-02
  1.0472341e+00   1.0942408e-01
  1.6599348e+00   1.7670855e-01
 -3.7028584e-01   1.9059722e-01
  5.1093549e-01   2.2334948e-01
 -1.3087367e+00   2.5207698e-01
 -3.7870464e-01   1.4338072e-01
  1.0310146e+00   4.0286671e-02
  1.4919581e+00   1.6984168e-01
  9.3684238e-01   1.1535458e-01
 -3.7107768e+00   5.1455654e-02
 -1.6022391e+00   1.1685146e-01
  1.6333705e+00   9.9704407e-02
 -8.9828737e-02   1.3966762e-01
 -1.5106143e-01   3.2203685e-02
  3.3494174e+00   1.1160598e-01
  4.3858591e-01   2.3057982e-01
  4.8614755e-01   8.2804620e-02
 -1.7613454e-01   1.2821597e-01
  3.1393085e+00   1.0669190e-01
  2.4386625e+00   1.8038720e-01
  3.8544407e-01   2.1554559e-01
  3.6066836e-01   2.7486917e-01
 -6.9732696e-01   1.4586364e-01
  9.6896403e-02   1.5554580e-01
  6.0352554e+00   6.9395274e-02
  3.2648039e+00   1.7043099e-01
  5.6087203e-02   1.1843953e-01
  1.8613886e+00   2.6392808e-02
 -2.1001132e+00   2.8788558e-01
 -1.4034668e-01   5.7048973e-02
  1.4617703e+00   1.5645644e-02
  1.3683523e+00   2.2804532e-02
 -4.7385044e-02   1.7061387e-01
  1.2622026e+00   4.2942498e-02
 -2.2662781e-01   5.8966529e-02
  1.4285080e+00   7.3892787e-02
  3.1615067e-02   4.2568039e-02
  3.2334726e+00   7.7500261e-02
 -1.1791322e+00   6.7950860e-02
 -3.7722644e-01   1.5810420e-01
 -2.3125520e-01   2.5791141e-01
 -6.5691054e-01   2.0559154e-01
 -8.5464489e-01   1.3908860e-02
 -4.2311618e-01   2.2612695e-01
  2.7449381e-01   3.0289200e-01
  3.3834493e-01   1.1618144e-01
  1.9139650e-01   3.2126707e-01
 -1.5311751e+00   7.0914410e-02
 -8.1413043e-01   3.1985199e-01
 -1.9744259e+00   7.2628215e-02
 -5.4004841e-02   2.5886126e-02
  3.1197053e-01   2.5775200e-02
 -1.1958622e+00   1.6092338e-02
  5.6468129e-01   4.5644794e-02
  1.7362787e+00   1.5660399e-01
 -2.5439334e-01   1.6755305e-01
 -9.6286750e-01   3.7998909e-01
  1.1986980e+00   3.9104071e-02
 -1.8068320e+00   1.2819192e-01
  9.3918973e-01   2.7095947e-01
  9.9802747e-02   2.9091018e-01
  2.1409700e+00   8.4051222e-01
  1.7416090e+00   4.5334533e-02
 -8.1171739e-01   1.6966198e-01
  1.1283772e+00   2.4651811e-01
 -2.6438874e-01   2.5020987e-01
  9.5153803e-01   1.2011318e-02
 -1.9151417e+00   1.3410203e-02
  7.6677895e-01   8.0970423e-03
  2.1484272e+00   4.3553393e-03
 -2.2170956e+00   1.1682216e-02
 -1.9152691e+00   5.2336771e-03
 -1.8937813e+00   1.4144524e-02
 -4.0409617e+00   7.2910408e-03
  8.3187550e-01   1.8182585e-01
 -9.3639368e-01   1.1908196e-01
  6.2264532e-01   1.0172009e-01
  3.1725323e+00   5.0891366e-02
 -2.9934406e-01   7.3367260e-02
  1.2395414e+00   4.0653061e-02
  3.5743657e-01   6.3964585e-03
  1.0106646e+00   3.2054950e-02
 -2.4767609e+00   1.5068011e-02
 -8.0813557e-01   1.4941433e-01
 -3.3345917e-01   9.2266299e-02
  9.7885728e-01   6.5910406e-02
  9.1352260e-01   2.0727200e-02
  1.0489736e-02   3.2984946e-02
 -2.2711625e+00   2.7577624e-02
  7.3747396e-01   2.7848799e-02
 -9.8016155e-01   1.1488824e-01
  1.4556740e-01   1.1048310e-02
 -5.4230577e-01   2.5510360e-02
 -4.3247059e-01   3.8966864e-02
 -3.8133037e+00   5.2609675e-02
  1.6559064e+00   6.7836903e-02
  3.1570518e+00   6.2924676e-02
  4.8383075e-01   9.0674289e-02
 -5.3184004e+00   2.5175519e-02
 -3.4694500e-02   1.6894095e-01
 -1.2910461e+00   1.0852574e-01
 -1.0974731e+00   4.6877313e-01
  3.1971769e+00   5.9728816e-02
  3.3411555e+00   9.6138306e-02
  1.4217678e-02   1.1602183e-01
  1.6168294e+00   8.1631877e-02
 -1.3675797e-01   4.0553331e-02
 -1.0819340e+00   2.8783450e-02
 -2.2536497e+00   1.5191847e-01
  9.1344374e-01   3.6520204e-01
  2.8188214e-01   8.5881278e-02
 -2.2174890e-01   1.7006029e-01
 -1.8662208e+00   8.0286019e-02
 -2.7882407e+00   1.0014480e-01
 -1.9152521e+00   4.2242639e-02
 -1.1412288e+00   9.9673998e-03
  3.2370466e-01   3.8291602e-03
 -1.6203240e+00   1.2660857e-01
 -1.6295331e+00   2.0820875e-02
  2.1891983e+00   9.2817470e-02
  3.3587733e-01   4.1067240e-01
 -6.5118653e-01   1.7557676e-01
 -1.0951543e+00   2.9228462e-02
  3.3182579e-01   2.6959622e-01
  2.6477387e-02   1.8661713e-02
 -9.3027091e-01   1.0984087e-01
 -2.3314109e-01   1.7185667e-01
 -4.6984714e-01   2.7266079e-01
  9.8276287e-01   1.0717014e-01
  3.2430097e-01   8.3941944e-02
  3.5303575e-01   8.5336000e-02
 -2.0660591e+00   8.3435215e-02
  2.2588193e-02   6.4448617e-02
  1.2153070e+00   1.0755074e-01
  1.4920267e+00   3.3186623e-01
  9.8433930e-01   9.8014303e-02
 -1.1067407e+00   8.9181047e-03
  1.3721333e+00   1.1377144e-03
  2.0697773e+00   8.4636314e-03
 -6.4118779e-01   8.3311722e-03
 -2.6635888e+00   2.0595423e-03
  3.4881052e-01   6.2334863e-03
  2.2905273e+00   4.9802298e-03
 -2.3924742e+00   3.0757960e-02
  1.1719379e+00   1.1651709e-02
  4.1493587e+00   4.7949672e-02
  1.5875970e+00   1.5649958e-02
 -4.4352096e-01   1.9217541e-02
  1.3421361e+00   3.0915814e-02
  4.7173195e+00   1.1126682e-02
  1.7921592e+00   2.5083635e-02
  2.0189841e+00   1.8429544e-02
  2.2608538e+00   4.2951103e-02
  5.5709267e-01   1.2228822e-02
 -2.0084353e-01   9.0572825e-03
 -3.8742760e-01   7.6821424e-02
 -2.5673304e+00   1.6582811e-02
 -1.6045431e+00   2.5744593e-02
  5.5538110e-02   2.4047377e-02
  3.2543120e+00   2.0365914e-02
 -2.2026467e+00   5.5944677e-03
  2.9837459e-01   1.3586047e-02
 -1.1025308e+00   2.8242830e-02
 -6.6897905e-01   1.8938104e-02
  1.0921159e+00   9.2710182e-03
 -1.7166779e+00   1.0501301e-02
 -3.4301646e+00   2.8294858e-02
 -2.3386376e+00   8.1249010e-03
 -9.4017982e-01   1.1368903e-02
  2.5630796e-01   3.9833028e-02
 -1.7072090e+00   1.4364862e-02
 -2.6865401e+00   6.2093340e-02
 -2.4768550e+00   1.3614080e-02
  3.4166536e-01   1.8915536e-02
  8.2610722e+00   5.8379337e-02
  1.6485318e+00   9.0526929e-03
  4.3952677e-01   3.1565227e-02
 -2.3244395e+00   1.3219452e-02
 -2.1294417e+00   3.8457251e-01
  2.8998137e-01   1.6878409e-02
  4.0646386e+00   1.1361025e-01
  3.5430825e+00   7.9125866e-02
  9.9365100e-02   5.1511448e-02
 -4.2731982e-01   4.4353660e-02
  1.6278394e+00   4.7343053e-02
  4.7544980e-01   8.2468003e-02
  1.4701229e-01   6.0335081e-02
 -2.0329034e+00   3.7213951e-02
  1.9148463e+00   3.9246395e-02
  1.1506943e+00   6.2651701e-02
 -6.5323430e-01   4.4588295e-01
  1.3485893e+00   4.1859914e-02
  1.9278771e+00   1.5934351e-01
  2.3383030e-01   9.1760024e-02
  1.0108855e+00   1.4735346e-02
 -1.2444953e+00   3.0348986e-02
 -3.1551287e-01   5.3526806e-03
  8.0949831e-01   4.5030437e-02
  3.0308886e+00   9.5093042e-02
  3.6916053e-01   1.4661029e-01
 -5.5503106e+00   1.3026261e-01
  2.7754676e+00   2.7528269e-02
  1.5239465e+00   4.1375503e-02
  1.3264875e-01   6.5617822e-02
  4.2167168e+00   9.3583062e-02
 -1.3461133e+00   1.1520352e-02
 -5.2288276e-01   5.4985408e-02
 -1.4794647e+00   2.5970373e-02
  7.5864339e-01   1.0527027e-01
  4.8292236e+00   6.3820690e-02
 -4.1006508e-01   8.5825436e-02
  1.7642547e+00   1.4280991e-01
 -2.8708630e+00   9.1687620e-02
 -9.8865217e-01   7.6346576e-02
  1.1920846e-01   5.3925898e-02
  1.8102184e-01   2.1828322e-01
 -2.0282004e+00   2.9400927e-01
  2.4583413e-01   5.6233436e-02
 -8.1257910e-01   3.6972564e-02
  3.7745237e-02   5.9823070e-02
  7.0044506e-01   3.2499734e-02
  2.8278847e+00   1.7804262e-01
 -1.8071940e+00   6.1414849e-02
 -1.1226101e+00   4.4001397e-02
 -1.8034673e+00   7.4166372e-02
  1.0518063e+00   5.9393398e-02
  5.9874684e-01   3.9799001e-02
  3.3946577e-01   1.4249438e-01
  3.3410704e+00   1.0516838e-01
 -2.4365933e+00   2.2514116e-02
  9.6423292e-01   1.3055888e-01
 -7.5381744e-01   9.1706701e-02
  1.7259712e+00   1.6242772e-01
 -2.9583848e-01   1.7749308e-01
 -1.2639731e+00   5.6353275e-02
  5.4357427e-01   1.7194949e-01
 -1.2260357e+00   1.1402347e-01
 -3.9388614e+00   2.6307181e-01
 -2.1810353e+00   2.1431337e-01
 -3.0455084e+00   1.1545582e-01
  7.3625916e-01   6.7478634e-02
 -6.3395250e-01   5.1306859e-03
 -7.7560997e-01   6.4077857e-03
 -2.2417314e+00   3.2154422e-03
 -1.0773138e+00   3.1842922e-03
  7.4061787e-01   5.0121713e-03
 -2.8287062e-01   3.2422428e-03
 -3.2869807e-01   2.5872872e-03
  2.1563056e-01   1.3632732e-02
 -2.4347293e-01   1.1339391e-02
 -1.0076696e-01   1.9490566e-02
 -8.0594176e-01   2.3142910e-02
  6.1492544e-01   1.3014492e-02
 -4.5705691e-01   5.1246684e-02
 -8.8252163e-01   6.3812518e-03
 -1.0210742e+00   1.1535843e-02
  6.1337847e-01   1.4201579e-02
  1.1557163e+00   1.5606037e-02
  5.4580517e-02   9.0854419e-03
 -6.3463354e-01   1.4427396e-02
 -9.6631563e-01   3.4343630e-02
 -2.5165978e-01   6.9677313e-03
 -9.5051259e-01   1.7589606e-02
 -8.6332452e-01   1.2788032e-02
 -1.1930681e-01   1.1813506e-02
  2.1098735e+00   7.5448886e-03
  1.7580761e-01   6.6923890e-03
 -3.4495046e+00   3.9070877e-03
 -1.3197156e+00   1.1427647e-02
 -1.2584043e-01   5.6114420e-03
 -3.8951293e-01   1.1021083e-02
  1.6631020e+00   3.6812429e-03
 -2.4841830e-01   4.7560320e-03
  1.0689811e+00   6.3187573e-03
  9.2208147e-01   1.0744296e-02
  1.9386649e-02   5.8872118e-03
  5.1756936e-01   1.0933170e-01
 -1.1781583e-01   1.8575579e-02
 -8.1961948e-01   4.2029835e-02
 -5.1586455e-01   1.7052880e-01
  1.9138573e-01   3.5725109e-02
 -2.2126303e+00   3.9120775e-02
  4.7180122e-01   5.5154469e-02
 -1.8223398e+00   1.7190662e-01
  5.1010799e+00   4.1113488e-02
 -1.6086282e+00   1.3786182e-01
 -2.7400253e+00   1.6945692e-02
  6.5463316e-01   5.5598386e-02
 -1.6666616e-01   2.3887770e-01
 -3.4114233e-01   3.0736196e-01
 -1.9601504e+00   6.5515279e-03
  1.8595252e+00   2.2550397e-02
  1.9079193e-02   2.4107365e-01
 -1.4739225e+00   1.3560833e-02
  8.7554193e-01   5.4853916e-02
  4.4608554e-01   2.5169544e-02
  2.9341769e-01   1.2384014e-01
 -2.1351571e+00   2.2784851e-02
 -7.4206191e-01   5.1480561e-02
 -5.1794344e-01   8.9593850e-02
 -9.1059387e-01   7.0638973e-03
 -4.7722855e-01   3.9977255e-01
  1.0389385e+00   3.1164285e-02
 -6.4304528e+00   5.2000716e-02
  6.3477719e-01   1.2332747e-01
 -5.4382305e+00   1.0878165e-01
  4.1822457e-01   9.9414431e-02
  4.3338886e-01   2.4554303e-01
  5.1380163e-01   9.0034291e-02
  1.1941174e+00   1.0631165e-01
  1.4777466e+00   3.4021523e-02
 -3.6501214e-01   1.4076947e-02
 -5.7171106e-01   1.2596219e-02
  7.7161893e-02   1.0440423e-02
 -1.1988961e+00   1.0868052e-02
 -2.6190178e+00   8.9560458e-03
 -3.2480512e+00   5.7771415e-03
 -3.7031034e-01   1.9104268e-02
  9.1743386e-01   8.3900288e-02
  2.5705895e+00   3.6796618e-02
  1.4242083e+00   1.4790770e-02
  5.1651067e-01   1.0948045e-01
 -3.4087569e-01   7.7127926e-02
  6.7394592e-02   1.1856824e-02
  2.0158261e-01   7.7856041e-02
  1.5383099e+00   5.6112580e-02
  1.2435528e+00   5.1438477e-02
  8.0748469e-01   3.1424195e-02
 -1.1805602e-01   3.3057939e-02
  4.9502751e-01   1.9620338e-02
  4.8975196e-02   7.5464897e-02
 -1.5954504e+00   2.2283530e-02
  1.1410363e+00   9.2102826e-02
 -3.3525500e+00   3.0531161e-02
 -2.2636085e+00   1.2462245e-01
  4.9431181e+00   2.2494061e-02
 -8.2317215e-01   4.2336226e-02
  1.2029489e+00   6.2123179e-02
  2.7200298e+00   1.7986348e-02
  5.6785977e-01   1.9005150e-02
  1.6374149e+00   6.0820010e-02
 -7.6089174e-01   3.8498335e-02
 -5.3053588e-01   6.0008626e-02
 -1.9914020e+00   3.7030406e-02
 -3.6603997e+00   5.9506174e-02
 -4.4233966e-01   1.4241165e-02
  2.2671306e+00   5.1850405e-02
  3.1115470e+00   4.1714080e-02
  7.0157158e-01   2.7537329e-02
  8.1246394e-01   3.2786999e-02
  1.8637114e+00   2.5763944e-02
  8.1846553e-01   2.1027278e-02
  3.4735432e-01   3.9652083e-02
 -6.4555478e-01   7.1808748e-02
  2.0971014e+00   1.0301160e-01
  6.7274797e-01   4.6921831e-02
  4.2266595e-01   4.3922495e-02
 -1.6550434e+00   8.7598458e-02
 -2.0408855e-01   4.5777384e-02
  6.9805956e-01   5.0517272e-02
 -1.6160951e+00   1.9389994e-01
  3.4008777e+00   7.1440324e-02
 -7.9194188e-01   7.3943920e-02
  1.9483935e+00   6.8873977e-03
  3.8606831e-01   5.2157734e-02
  2.3505253e-01   4.4584192e-02
  3.5327616e+00   1.5752751e-02
  5.4839883e-02   1.7044401e-02
 -3.2573123e-03   7.2949408e-03
  7.5599760e-01   1.0381634e-01
 -8.0782324e-01   4.5345899e-02
 -4.9412347e-02   1.5132472e-01
 -2.6404448e+00   2.6058391e-02