 -1.3275141e+00   3.7522495e-02
 -1.5041150e+00   4.4675391e-02
  7.1941435e-02   1.3580623e-01
  4.8558283e-01   1.4279152e-01
  3.0469458e+00   6.2202275e-02
 -1.2848042e+00   1.3736606e-01
  2.5886998e+00   1.1482847e-01
  1.3313434e+00   5.2857224e-02
  1.6655912e-01   8.1247754e-02
  2.1843979e+00   6.2055204e-02
  9.8760444e-01   3.0069646e-01
 -1.5715123e+00   3.0085444e-02
 -3.9197862e-01   2.0270807e-01
 -1.7177585e+00   1.2985088e-01
 -9.1389127e-02   1.3723704e-01
 -2.1526861e+00   7.0174083e-02
  5.1712811e-01   1.8302108e-01
  5.0023675e-01   6.6238269e-02
  2.1821722e-01   4.2672545e-02
  3.5577378e-01   2.9675361e-02
 -1.4950979e+00   3.6702543e-02
 -6.6174817e-01   2.3981576e-01
 -4.5859471e-01   5.6822523e-02
  3.8731949e+00   1.2881776e-02
  8.4839568e-02   8.5259937e-02
  3.8936544e-02   2.3321256e-01
  1.1089572e+00   3.7036702e-02
 -7.6744705e-05   5.2767336e-02
 -2.4576993e+00   2.2047280e-01
 -1.6323493e+00   1.2249451e-02
 -2.6054108e+00   1.4646688e-01
  3.0046508e-01   3.2143872e-02
 -2.9017560e+00   1.8402131e-01
 -9.5818335e-01   7.9788722e-02
  6.1627811e-01   2.4279218e-02
 -8.5721606e-01   1.3599394e-01
 -4.4047499e-01   1.0104046e-01
 -1.3598712e-01   1.1370975e-02
 -9.5677322e-01   3.4307558e-02
 -3.9603446e+00   1.4857941e-02
 -2.0809939e+00   4.8039060e-02
 -8.7065631e-01   3.2494683e-02
  1.9606321e+00   3.3018328e-02
  2.5247753e+00   8.6325802e-02
  1.6631343e+00   4.9847610e-02
  2.7747440e+00   1.0442263e-01
  2.6978407e+00   3.7110809e-02
  2.5461636e+00   4.0247336e-02
 -5.7587156e+00   1.1805393e-01
  5.3846550e-01   1.9583441e-01
 -8.9206064e-01   1.1229309e-01
 -1.1288294e+00   4.2453267e-02
 -2.8817244e+00   6.4073175e-02
 -1.7241541e-02   1.3111596e-01
  4.4040695e-01   8.1360094e-02
 -7.9555690e-01   7.9876609e-02
 -1.3237005e-01   1.6792063e-01
 -1.1798906e+00   7.2499387e-02
 -1.1272464e+00   7.5135939e-02
 -2.4921224e+00   5.0255567e-02
  6.5752053e-01   4.7941510e-02
  7.3931289e-01   9.6514568e-02
  3.0912253e-01   9.7534068e-02
  1.8026137e+00   1.9310050e-02
 -3.7962790e+00   1.4213817e-01
 -8.8609383e-04   1.3990088e-01
  2.8159073e-01   5.3883310e-02
 -6.0295806e+00   7.2991014e-02
 -4.4364887e-01   8.5082702e-02
 -6.6522038e-01   8.3072744e-02
 -1.2400364e+00   5.7920843e-02
 -4.3589333e-01   6.5689027e-02
  1.9445527e-01   9.1108181e-02
 -2.9574087e-01   2.6650809e-02
 -7.1919590e-01   7.1662404e-02
  2.0044906e+00   8.0714568e-02
 -5.5834734e-01   1.4356148e-01
  1.4359145e-01   6.2653825e-02
 -1.7825288e+00   8.3649307e-02
 -1.1582192e+00   7.9042008e-03
  4.9544299e-01   9.6659243e-02
 -8.1261510e-01   5.4135997e-02
  5.8521891e-01   6.1447442e-02
  2.7245045e+00   8.0347411e-02
 -6.1401939e-01   2.7121656e-02
 -8.0672431e-01   5.3268753e-02
 -3.9193049e-01   4.8471954e-02
 -2.0219080e+00   2.1641258e-02
 -1.9216767e-01   4.6731122e-02
 -5.0113410e-01   3.5029021e-01
 -3.2755795e-01   2.6764931e-02
  1.7066856e-01   1.1729648e-01
 -1.4050621e-01   5.4087918e-02
 -1.1152024e+00   2.3524220e-01
  7.3984486e-01   4.5789547e-02
  9.2605931e-01   9.1427043e-03
  5.6992833e-02   6.6764824e-02
  1.4071719e-01   1.0267873e-01
 -3.2733351e-01   1.4247203e-02
  2.8047854e-01   9.0631373e-02
 -1.4179380e-01   4.4276800e-02
 -9.5482582e-01   3.5144117e-02
  7.8095138e-01   1.0335403e-01
 -1.2931527e+00   5.6134094e-02
 -1.3775478e-02   1.9985645e-01
  1.5331014e+00   2.4129015e-01
 -1.0912055e+00   1.3039377e-01
  4.6928976e-02   1.2633140e-01
  5.7314992e-01   1.2472289e-01
 -7.5361705e-01   6.3342787e-02
 -7.3681259e-01   2.8863758e-01
 -2.1804710e-01   8.4944814e-02
 -1.7419401e+00   4.0515777e-02
  1.2709336e+00   8.4673278e-02
  9.0138681e-02   1.7967092e-01
  2.4547267e-01   3.3206853e-01
  4.6405542e-01   2.1888955e-01
 -6.2063569e-01   4.9227364e-02
 -1.3452737e+00   1.0013553e-01
 -4.3825069e-01   1.8699989e-01
  5.8111984e-01   1.9386974e-01
  1.5755157e+00   1.1088340e-01
 -6.5880477e-01   2.7502251e-01
 -3.4952509e-01   2.2193739e-01
 -6.8900928e-02   2.2339238e-01
  4.3256626e-02   1.1489820e-01
  6.4507127e-01   1.6371553e-01
  1.1762737e+00   4.6991073e-02
 -2.2684362e+00   6.8745732e-02
 -1.1001278e-01   3.8032651e-02
 -4.3232799e-01   1.4581847e-01
  2.8160350e+00   3.3298660e-02
  3.9645366e-02   3.4032249e-01
  2.9131067e-01   4.8607850e-01
 -3.6736512e-01   2.1621211e-01
  2.0815079e+00   1.0881244e-02
 -1.8992494e+00   1.5131809e-01
  1.6288739e-01   2.2000916e-01
  1.2161319e-01   2.1556811e-02
 -4.5892522e-03   2.7336815e-01
 -7.3924077e-01   1.2018500e-01
 -3.1329983e-01   7.7107124e-02
  8.0259621e-01   3.3259336e-02
 -2.3061985e-01   3.2916013e-02
  5.7026446e-01   4.7353614e-02
  1.8644309e+00   1.1066930e-01
 -4.5857084e-01   3.8734600e-02
  3.9426811e-02   1.3692088e-01
  7.7232116e-01   3.8035858e-02
 -2.1759954e-01   2.8899524e-02
 -8.6675996e-01   2.6151318e-02
  1.6553175e+00   6.6249527e-02
  9.3092167e-01   1.4904544e-01
 -4.2451099e-01   1.5498854e-01
  3.6042330e-01   1.3676640e-01
  1.7694181e+00   3.0264866e-02
  9.8807120e-01   1.1129537e-01
 -1.2912881e+00   1.8289365e-01
  4.6454935e+00   3.8583506e-02
 -1.9038755e+00   4.3898545e-02
  8.4743887e-01   1.4078984e-01
  4.3686512e-01   1.1324950e-01
 -8.7223887e-01   5.9405576e-02
 -8.4416062e-01   1.8105485e-02
 -4.1438246e-01   9.0048693e-02
 -1.6788191e+00   5.3249393e-02
 -9.8744690e-01   1.0394132e-01
  8.6285049e-01   6.5195516e-02
 -2.3892654e-01   1.9641377e-01
  8.7622321e-01   1.2072250e-01
 -1.3342748e+00   2.1002305e-01
 -7.8585738e-01   3.7923980e-01
  2.6055191e+00   7.3324430e-01
  1.0463953e+00   8.0160573e-02
  5.9155947e-01   1.4805345e-01
 -2.0135373e-01   2.8915059e-02
  2.0255299e-01   1.2554443e-01
 -4.4856867e-01   1.8112840e-01
  4.2489696e-01   1.1071987e-01
 -5.1547348e-01   3.4335025e-02
 -1.7659385e+00   6.8570115e-02
 -4.3166369e-01   4.6298954e-01
 -1.2930310e+00   5.3676397e-02
 -7.5510964e-02   6.2033810e-02
  4.8425579e-01   2.2939561e-01
  3.0625451e-01   1.0213181e-01
  1.9584782e-01   1.1224340e-01
  3.2310370e-01   1.6978921e-01
  1.0090387e+00   7.8410804e-02
 -1.2566788e+00   5.2173561e-03
  1.3691877e+00   1.1144160e-01
  1.3928225e+00   6.1974369e-02
 -2.3923619e-01   1.0708759e-01
  2.8828165e-01   1.2748815e-01
 -1.6310711e+00   9.1195717e-02
 -3.0496508e-01   4.7481395e-02
 -4.2252851e-01   1.6032130e-01
  1.2597620e+00   6.4558893e-02
 -9.4749659e-01   3.0550635e-01
  1.4119300e+00   5.2776530e-02
  3.8884856e-02   1.4865451e-01
  1.0427604e+00   2.1004343e-01
 -1.6543892e-01   3.9940622e-02
  9.2882782e-01   2.3401694e-02
 -2.2033381e-01   5.2083250e-02
 -2.9678416e-01   6.8488479e-02
  9.9631822e-01   2.7010389e-02
  2.4628331e-01   1.0346180e-01
  3.2017440e-01   1.2321642e-01
  1.2727803e+00   3.1421095e-02
  1.0707316e+00   3.8904706e-01
 -7.2089207e-01   1.6506015e-01
  8.6319256e-01   3.1478267e-02
  1.1025082e+00   1.4843524e-01
  8.0984354e-01   1.5356620e-01
  1.1451168e+00   1.3059810e-01
  1.5666921e-01   1.5791397e-01
  2.4911594e-02   3.9818544e-02
 -1.3928203e-01   5.7252866e-01
  1.3653411e+00   2.0397617e-01
 -2.6261148e-01   2.0002617e-01
  1.6032231e-01   3.9164357e-02
 -7.7807230e-01   1.1555198e-01
 -9.8838425e-01   4.2239651e-02
  2.1800499e+00   4.5665883e-02
 -1.7117293e+00   1.1314183e-02
  8.7914735e-01   7.0770390e-02
 -1.4089220e+00   9.9882409e-03
 -6.9767874e-01   2.4803357e-02
 -1.4644210e+00   1.0526676e-01
  9.1701853e-01   2.8850405e-02
  1.3539922e+00   1.2702398e-01
  3.0038211e+00   1.0322335e-01
 -4.9833155e-01   1.4661758e-02
 -1.7323582e+00   5.5266351e-02
  3.2033632e+00   1.5205954e-01
 -1.0208808e+00   2.5085273e-01
 -5.2727842e-01   7.5765058e-02
  3.6946157e-01   5.5842634e-02
  3.4439874e-01   3.6381204e-02
  9.7170675e-01   1.2464453e-01
 -1.3371074e+00   2.4062887e-01
  2.7401182e-01   2.5115988e-01
 -1.5580732e+00   7.7918544e-02
  5.2970339e-02   9.5731407e-02
  2.0576136e+00   3.8489965e-01
 -1.5467044e+00   1.0440193e-01
  1.5607160e-01   1.6860044e-02
  7.2788393e-01   7.9783618e-02
 -7.5444627e-01   1.1737100e-01
 -7.9159814e-01   1.6713370e-01
 -2.5248470e-02   1.0474261e-01
 -1.7271160e+00   2.3204746e-02
  2.4545469e+00   1.4062410e-02
 -6.6615176e-01   2.1933426e-01
 -3.9403680e-01   7.1432561e-02
 -4.8569530e-01   7.0492797e-02
  1.2404802e-01   4.7497559e-02
  8.6297941e-01   7.8976683e-02
 -3.3346859e-01   6.4309329e-02
  6.9866019e-01   1.1209226e-01
 -1.8404194e+00   1.0344470e-01
 -5.7485110e-01   3.8346082e-02
  6.0891938e-01   3.1655058e-02
 -1.3777910e+00   7.1507312e-02
  4.9742454e-01   8.2987398e-02
  5.0522767e-02   1.0213776e-01
 -6.1568934e-01   2.1683963e-01
 -3.6762342e-02   3.6781456e-02
 -1.2301251e-01   2.8782479e-02
  3.9086324e-01   3.8812447e-01
 -1.0065167e+00   1.3612202e-01
 -1.9531485e-01   5.9491552e-02
 -1.8715799e+00   1.2891857e-02
  1.7160662e+00   1.3380389e-01
 -3.3284245e+00   2.4190052e-01
  1.9195044e-02   9.4275966e-02
 -6.6609967e-01   4.0124808e-02
 -1.6586621e-01   8.8125251e-02
 -9.7693712e-01   3.7323117e-02
 -1.6032000e+00   7.4647330e-02
 -2.2601161e+00   4.9266674e-02
  1.9310960e+00   5.5994917e-02
  7.1559489e-01   1.4101563e-01
 -1.8001951e+00   2.2649308e-01
 -1.3812439e+00   1.9557152e-02
 -1.0865439e+00   3.7345362e-01
  1.4040105e+00   1.6491136e-02
  1.6780776e-01   2.4346584e-02
 -2.1424863e+00   8.0984756e-02
 -1.6838795e-01   7.8020260e-02
 -7.7669185e-01   2.6796237e-01
 -1.6658840e-01   2.1722184e-01
  2.2027833e+00   1.1475485e-01
  1.0111997e+00   1.3696787e-02
 -6.5584493e-01   1.0667475e-01
 -9.9891597e-01   3.5132878e-02
 -1.3537841e+00   4.6863720e-02
  2.4575050e+00   1.4343971e-01
  1.4843938e+00   1.4586660e-01
 -3.0181843e-01   1.2975870e-01
  1.7194003e+00   9.1127753e-02
 -4.3859558e+00   6.1513830e-02
 -2.4828507e-01   9.6833296e-02
 -1.2944969e+00   1.2358738e-01
  1.6335280e+00   5.1838581e-02
 -2.1140122e+00   1.4437208e-01
 -9.7695112e-01   2.0577791e-01
 -1.3032225e+00   8.3227895e-02
  5.6401807e-01   1.8526143e-01
  2.5330672e+00   8.3015211e-02
 -5.0013089e-01   2.4839997e-01
  1.5654565e+00   2.1007778e-02
 -7.3951706e-02   2.1626891e-01
  8.6038208e-01   2.9499465e-01
 -1.2920734e+00   5.1171534e-02
  7.3029056e-02   2.5583717e-01
  3.4205240e-01   2.7368793e-02
 -3.6617169e-01   1.1202416e-01
 -2.2024660e-01   1.2600544e-01
 -1.5398341e-01   1.2275019e-01
 -2.7208170e-02   1.7865005e-01
 -1.4492252e+00   1.3855420e-01
  1.4479870e+00   1.4987433e-01
  1.8564206e-02   3.7159640e-02
 -1.3741372e+00   4.1847315e-02
 -2.2747691e-01   2.0646197e-01
  3.1199831e-01   7.3878236e-02
 -4.9603516e-01   9.6513741e-02
  7.5294614e-01   6.1120402e-02
 -6.5704769e-01   1.2548411e-01
 -8.5370682e-02   1.1117668e-01
  3.9902806e-02   1.7512535e-01
  3.0242906e+00   5.9982557e-02
 -3.2042401e+00   9.0583824e-02
  1.5570028e+00   9.6718594e-02
  1.7901088e+00   2.4953287e-02
  5.4978687e-01   9.3022652e-02
 -1.0685568e+00   1.0430340e-01
 -1.0834958e-01   1.0153851e-01
 -5.2710855e-01   8.9075141e-02
  2.9245844e-01   1.0794044e-01
  5.1087618e-01   3.8457785e-02
  6.2780142e-01   7.6154083e-02
  1.6182932e+00   3.2513127e-02
  2.4445127e-01   9.9235378e-02
 -1.6242182e+00   1.1998668e-01
  3.3424535e-01   2.7122112e-02
  2.2401769e-01   1.3167766e-02
 -4.7009519e-01   4.9127612e-02
  3.9595615e-02   3.0341791e-02
 -1.2132082e+00   2.5711092e-01
  2.1429923e-01   6.9318610e-01
  2.0591253e-01   1.9658574e-01
  2.2791365e-01   2.4179919e-01
  1.5332859e+00   1.8567753e-01
 -1.1088331e-01   1.0913666e-01
  2.2744079e+00   2.8182217e-01
  1.5964369e+00   3.9184581e-02
 -7.0501250e-01   7.1660474e-02
  8.0376351e-01   7.1351729e-02
 -1.2787861e-01   2.3209801e-01
  1.3506395e+00   1.0200211e-02
  1.4458928e+00   2.6145047e-01
  1.0165663e-01   6.6960186e-02
  1.4096678e+00   1.0714648e-01
  5.3968352e-01   1.6949065e-01
 -4.5121992e-01   5.0952464e-02
  3.8426244e-01   1.8797959e-01
  3.2799882e-01   6.8462342e-02
  2.6516515e-01   2.5333352e-02
  1.5846834e-01   1.0344094e-02
 -2.0223770e+00   1.1311240e-01
  4.9624816e-01   5.1283933e-02
 -9.7044241e-01   1.8985404e-02
  2.4969757e-02   4.1437071e-02
 -3.4530860e-01   3.9198305e-02
 -5.9990942e-01   2.0309042e-02
  2.9989295e+00   4.8359048e-02
  2.7406868e-01   8.7582745e-02
 -3.1056929e-01   7.8817256e-02
  7.8742221e-02   1.1396798e-01
  1.5601940e+00   6.1816733e-02
  8.5786238e-02   1.2177689e-01
  2.5033441e-01   7.3303998e-02
 -1.1828626e+00   1.4914512e-02
  2.5732841e-02   5.8843128e-02
  2.5003507e+00   1.7443484e-01
  1.2409459e+00   3.9524335e-02
  8.8672006e-01   1.8211654e-01
  3.5837647e-01   1.6040798e-01
 -3.0968112e-01   1.2766258e-01
  1.1745296e+00   4.3387901e-02
 -5.9180904e-02   4.5027982e-02
  1.2939075e+00   1.2092302e-02
 -3.9777708e-01   9.3922891e-02
  2.3012278e+00   1.5533758e-02
 -7.6197559e-01   6.1102364e-02
 -8.2397467e-01   1.4092755e-01
 -4.0133250e-01   1.5954049e-01
 -1.7000012e+00   5.9037425e-02
 -1.0444790e+00   6.7499608e-02
  7.3880768e-01   5.4496523e-02
  1.5404912e+00   2.5199227e-02
 -2.7566946e-01   4.7567539e-02
 -8.2233077e-01   6.4157233e-02
  2.0818193e+00   3.6834456e-02
 -9.9285048e-01   2.0752886e-02
  1.0052156e+00   1.2261491e-01
 -7.2929478e-01   4.0747151e-02
  1.1778888e+00   1.0986113e-01
 -4.0773211e+00   4.9558681e-02
  5.6881928e-01   7.8441732e-02
 -3.5839131e-01   1.3941219e-01
  7.7028269e-01   8.6542688e-02
  1.8507410e+00   1.1809390e-01
 -5.9253037e-01   1.1750889e-01
  2.9677434e+00   1.7819978e-02
  3.3856261e-01   8.5944295e-02
 -1.3004086e+00   7.7350251e-02
 -1.0515019e+00   7.2827876e-02
  1.1504194e+00   9.9084631e-02
  2.2249478e-01   2.5144076e-01
 -2.2698002e+00   1.9602515e-02
  4.4265307e-02   8.9342266e-02
 -2.0079262e+00   6.0522303e-02
 -4.5922101e-01   3.6225017e-02
 -3.4477618e+00   1.8311705e-02
 -2.4058430e+00   7.5358845e-02
  3.3133051e-01   4.8944324e-02
  1.6669786e-01   1.3051564e-01
  2.2335560e+00   5.9286218e-02
  5.8491653e-01   2.5728717e-02
 -1.1071947e+00   6.7708097e-02
  6.4517560e+00   6.1638102e-02
 -9.6523499e-01   2.1515427e-02
 -1.6783372e+00   5.3886510e-02
  6.9976342e-01   6.5548368e-02
  2.2466881e+00   1.0393117e-01
  9.0654993e-01   1.1250427e-01
 -1.0883795e-01   2.9686945e-02
  4.3702888e-01   7.0487648e-02
 -4.2827697e+00   3.2382853e-02
  1.4225855e-01   2.1347988e-02
 -2.6652679e-01   6.2779021e-03
  5.6403333e-01   2.7000941e-02
  3.7614262e-01   5.5817254e-02
 -7.7955192e-01   1.5693281e-02
 -9.3325227e-01   2.2077013e-02
  1.8129618e-01   3.4483474e-02
 -1.5001456e+00   5.0044589e-02
 -1.6501122e+00   2.1960713e-02
  1.7540686e+00   5.6136195e-02
 -8.7955236e-01   1.2991579e-01
 -1.9802827e+00   9.9460252e-02
  1.1117049e+00   7.3646493e-02
 -4.5868775e-01   5.4235861e-02
  2.0205703e+00   1.2772885e-01
  5.1942652e-01   1.5049314e-01
 -2.3247895e-01   4.3316893e-02
 -1.2930915e+00   1.2355725e-01
 -1.6338677e+00   9.0310546e-03
  7.0622377e-02   3.5981905e-02
 -1.6746490e+00   4.6433300e-02
 -1.1680414e-01   5.8805056e-02
  4.0844798e+00   3.4535483e-02
 -1.3429421e+00   5.7051342e-02
  5.5638897e-01   1.5903218e-02
 -9.1211009e-01   5.0180722e-02
  1.7036256e-01   1.3624427e-01
  1.1038303e-01   2.3110917e-02
  5.3375202e-01   8.2988098e-02
  5.0059271e-01   7.8610234e-02
 -1.3441975e-01   3.6497101e-02
  1.2801688e+00   5.5284642e-02
 -1.6639811e+00   3.7237473e-02
  1.5415112e+00   6.1623804e-02
 -1.5313680e-02   3.5017550e-02
  5.4122847e-01   4.6472300e-02
 -2.1394463e-01   1.0350798e-01
  1.4451649e+00   4.0336579e-02
 -1.0403311e+00   9.6277315e-03
  2.0178178e-01   2.9617123e-02
 -2.0315728e+00   8.2653895e-02
 -1.6477598e+00   3.7889674e-02
 -1.3605379e+00   3.7195053e-02
  9.7845018e-01   2.4879327e-02
 -1.1373090e+00   3.2883499e-02
 -2.8506470e-01   1.3481771e-02
 -4.0653944e+00   8.5889645e-02
  5.4217088e-01   9.9199712e-02
  5.6473327e-01   4.3750256e-02
 -7.0158410e-01   8.0150776e-02
 -1.0674797e+00   1.3483017e-02
  5.9964675e-01   7.1735583e-02
  9.4449806e-01   4.4060163e-02
  6.9736123e-01   3.4683071e-02
  4.8137250e+00   4.1844644e-02
 -4.4770861e+00   5.3909097e-02
  2.9424765e+00   5.3008936e-02
  3.5167806e+00   2.9925955e-02
 -1.3792074e+00   5.5354755e-02
  1.7269604e+00   3.0315163e-02
 -2.8136730e-01   4.5716718e-02
 -2.4525803e-01   4.7727387e-02
 -1.1461339e+00   3.7125614e-02
  2.1046555e-01   1.0626372e-01
 -1.0394851e+00   2.4282899e-02
 -1.4917019e-01   1.4799535e-02
  1.8856841e+00   3.1606205e-02
  7.5308704e-01   3.2653689e-02
  4.3060203e+00   2.5515171e-02
  2.6850710e-02   3.0385450e-02
  3.4810243e+00   4.0204320e-02
 -1.1787096e-01   2.2141540e-02
  9.2573214e-01   2.7661141e-02
 -2.4364893e+00   4.0574074e-02
  1.4867008e+00   5.3010345e-02
  5.5401552e-01   6.7150213e-02
  8.7749374e-01   1.2921320e-01
 -1.7951028e+00   2.1813215e-01
 -1.2144082e+00   9.7405426e-02
  3.7438996e+00   5.2547902e-02
  1.1466157e+00   4.2466234e-02
 -7.3628694e-01   1.1060364e-01
 -1.2297343e+00   4.1546997e-02
  7.2207344e-01   2.0728994e-02
 -1.5455217e+00   2.0379055e-01
 -1.0945069e-01   2.2586472e-01
  3.9696097e-01   2.7028912e-01
  1.3906049e+00   2.8343888e-02
 -1.2248982e+00   2.5027516e-01
 -6.7625523e-02   5.6146566e-02
 -1.8460470e+00   8.9472987e-02
 -3.4062874e-01   3.3764079e-02
 -1.6414261e-01   7.1383581e-02
 -1.1431851e-01   1.3687311e-01
 -5.7929173e-02   3.3689182e-02
  2.3209944e+00   1.3536145e-02
 -2.1252661e+00   3.7748523e-02
  1.0392100e+00   1.3301112e-01
  1.1333604e+00   2.5372875e-01
  9.4941634e-01   1.8193148e-02
 -8.8862970e-02   2.8889835e-02
  9.6782312e-02   2.0167726e-01
 -2.8196905e+00   3.1294286e-02
 -1.2117788e+00   2.2956833e-02
 -5.6907666e-01   3.0913008e-02
  6.0667378e-01   1.9274092e-01
 -2.5591376e-01   6.1981432e-02
  8.3357871e-01   6.2706418e-02
  5.2857715e-01   1.6734473e-01
 -6.2806952e-01   9.2703953e-02
 -9.7923714e-01   5.1072441e-02
  4.8877001e-01   1.7462681e-01
 -1.8653823e-01   1.2434437e-03
 -4.7240585e-01   8.0518927e-03
 -7.2080147e-01   1.8919947e-02
 -3.2829924e+00   1.7425757e-02
 -9.7275275e-01   6.1581554e-03
 -1.7508408e+00   5.1786238e-03
  4.4319519e-01   3.9563783e-02
 -1.2588135e+00   4.8018093e-03
  9.2294008e-02   1.6239379e-02
  4.0853801e-01   4.4451866e-02
  1.6525838e+00   2.6275963e-02
  1.6297752e+00   1.6720958e-02
 -1.6712233e-01   4.0172901e-02
  2.2005430e-01   4.3843023e-02
 -8.0234766e-01   5.0285328e-02
 -1.0660162e+00   7.1189396e-02
 -5.4764837e-01   2.8185911e-02
  2.0525389e+00   1.3639137e-02
  6.6228384e-01   3.6065318e-02
 -2.4849927e-01   2.2671748e-02
  2.5064237e+00   2.0098764e-02
 -3.0139728e+00   1.1251802e-01
 -5.2669144e-01   4.3603826e-02
  3.2821560e+00   1.7195340e-02
  8.6026020e-02   1.8165834e-02
  2.5809088e-01   2.6919590e-02
  2.2388694e+00   1.0978501e-02
  4.0468958e-01   4.3602407e-02
  2.4214333e-01   2.2721479e-02
 -3.4051028e-01   5.6676030e-02
 -7.2557683e+00   1.9913562e-02
  3.7394202e+00   1.5204951e-02
  3.8373333e-01   4.8345007e-02
  7.1500070e-02   2.9614527e-02
 -1.1358936e+00   3.5675678e-02
  4.8073661e-02   2.1579890e-02
  1.7018627e+00   1.8785566e-02
 -9.3215340e-01   1.6487537e-01
 -5.2079652e-02   2.0660852e-01
 -2.6460829e+00   3.4216978e-02
  6.6507190e-01   9.6679449e-02
 -1.4688433e+00   5.8261227e-02
  9.6053332e-01   1.8978821e-01
  2.8964695e-01   1.2335917e-01
  1.5567932e+00   3.9499182e-02
  5.3255051e-01   7.9926223e-02
 -5.8556682e-01   8.9369938e-02
 -5.5311602e-01   7.9335473e-02
 -3.4527817e-01   2.5333267e-02
 -1.4219114e-01   4.5586318e-02
 -7.6352763e-01   3.1924662e-01
 -1.1691105e-01   5.0144821e-02
  8.5417837e-01   7.9420522e-02
  9.1689682e-01   9.3209809e-03
 -4.5514665e+00   6.9255412e-02
  3.0134422e-01   4.8793826e-02
  5.6258774e-01   1.1003680e-01
  7.2003597e-01   1.3227448e-01
  3.0300108e-01   1.5538932e-01
  4.5696345e-01   2.1119317e-01
 -5.3766066e-01   3.4939688e-02
  1.3798225e+00   8.0363460e-02
  2.3910695e-01   9.0654537e-02
 -1.6912270e+00   6.1684199e-02
 -5.7000488e-01   2.7177221e-01
  2.7476676e+00   1.7123210e-01
  4.4163856e-01   3.3529457e-01
  1.6399345e-01   2.4936865e-01
  3.0088363e-02   5.0048631e-02
  1.1184905e+00   3.3648857e-01
 -4.5021415e-01   2.1282479e-01
  2.1679486e-01   1.5323615e-01
  1.5838910e+00   1.9532378e-01
 -5.0800584e-02   1.0786034e-01
 -4.3553576e+00   5.2929878e-02
  2.8188652e-01   4.4173192e-02
 -1.4101655e+00   1.2321129e-01
  2.8834147e+00   5.6874905e-02
  1.7418132e+00   4.9567644e-02
  8.5479492e-01   1.3658277e-02
  3.1388074e-01   1.2680848e-01
  4.9080068e-01   1.8736541e-02
 -1.7846940e+00   1.2312686e-01
  3.7478147e+00   1.2052982e-01
 -3.4287944e+00   9.0492800e-02
 -9.6204445e-02   1.5080464e-01
 -7.7051675e-01   1.3419612e-01
 -1.9104600e+00   2.3158707e-02
  7.9596913e-01   1.7235133e-01
  1.4114355e+00   6.8982884e-02
  1.3448483e+00   5.3356942e-02
 -2.3262593e-01   1.0647587e-01
  1.5352126e+00   3.9781135e-02
  6.5951550e-01   2.3063122e-01
  1.0243254e+00   7.4047036e-02
  1.1694682e+00   4.1578624e-01
 -1.5904956e-01   2.9622418e-01
 -1.1972344e+00   4.3633881e-01
 -9.2630610e-02   1.6666146e-01
 -2.7188048e-01   7.7377208e-02
  9.3995266e-02   6.3142799e-02
 -6.6721451e-01   7.6974221e-02
 -1.3625089e+00   1.5741518e-01
  9.9629396e-01   2.5822675e-01
 -1.8862465e-01   1.8997602e-01
 -7.4199295e-01   1.0576618e-01
  2.5200710e-01   1.4209425e-01
  1.0481094e+00   5.8358602e-02
  7.5033987e-01   1.2449154e-01
 -9.3567044e-01   4.7968823e-02
  6.1826694e-01   2.5522119e-01
 -1.7937884e+00   1.0204229e-01
  7.0795852e-01   2.8168762e-02
  1.5736264e-01   2.2175275e-01
  1.0386847e+00   7.8578040e-02
 -3.9930916e-01   8.9165062e-02
  5.1366920e+00   5.2235484e-02
  4.3935773e-01   9.4274983e-02
  4.3350980e-01   8.4825419e-02
  8.2583958e-01   1.5685253e-02
 -2.1559815e-01   1.5951629e-01
 -4.8075384e-01   8.6774230e-02
 -1.6562098e-01   4.2191181e-02
 -1.0353519e+00   8.8383287e-02
  2.6620355e+00   3.3353988e-02
 -1.5370198e+00   2.9377875e-01
  1.0388990e-01   5.6530140e-02
 -1.7412753e+00   1.5229045e-01
  1.0615945e+00   9.7244583e-02
 -1.6824600e+00   5.4258820e-02
 -1.3790722e+00   2.7539450e-01
 -2.3370680e-01   1.5106858e-01
  1.5417507e-01   1.3978061e-01
  1.2696892e+00   3.4947794e-02
  9.0113229e-01   6.7905232e-02
 -1.8058226e+00   2.1676052e-01
  2.2225319e-01   5.9358113e-02
 -2.2670708e+00   5.6644648e-02
 -3.1473763e-02   3.0519459e-01
 -1.8675532e-03   2.4499062e-01
  3.7720227e+00   7.3877610e-02
  1.8885428e+00   1.9100249e-02
 -4.0112701e-01   1.4321627e-01
 -3.0501473e-01   1.4506026e-01
 -5.0667363e-01   9.4258212e-02
 -3.5696265e-01   2.3087151e-01
 -3.0208156e+00   4.5573007e-02
 -1.3248299e-01   2.2639973e-01
 -3.2343328e+00   1.2715575e-01
  3.7215814e-01   2.3598598e-02
  8.4519160e-01   3.5459808e-01
  2.1046844e+00   5.2117284e-02
  1.9675047e+00   9.3041137e-02
 -2.3375378e+00   5.4599125e-02
  5.2474223e-02   1.2939030e-01
  5.2109319e-01   1.4064139e-01
  6.6737038e-01   5.2795660e-02
 -4.9658263e-01   4.5354649e-02
  1.1966052e+00   1.3031904e-01
  3.9893132e-02   2.2253457e-01
 -2.3768939e-01   2.1460856e-01
 -3.7126371e-01   8.8267857e-03
  1.1106756e+00   5.4466061e-02
 -9.5484865e-01   2.3347169e-01
 -4.2037588e-01   3.4751749e-01
 -3.0733354e+00   1.6582292e-02
  6.1973083e-01   5.4517325e-02
  7.6003927e-01   8.1783034e-02
  1.3074973e-01   1.3132579e-02
  5.6870043e-01   2.4525063e-01
 -2.2407427e+00   9.6091866e-02
 -7.5076771e-01   2.2179166e-02
  1.3816842e+00   1.0794631e-01
 -1.5336115e+00   2.0590416e-01
 -5.4600362e-02   2.2413486e-01
 -3.5093236e-01   4.0829249e-02
  4.1816801e-01   1.2308085e-01
  9.4512105e-02   1.6226740e-01
 -6.9262320e-01   2.0002931e-01
 -4.0129471e+00   3.4679580e-02
  1.8117897e-02   1.5270722e-01
 -1.5266294e+00   1.1974158e-01
  1.3884261e-01   2.0948958e-01
  3.3119607e-01   1.5248094e-01
  2.1431563e+00   4.1455299e-02
 -1.5406814e-01   1.5619083e-01
  2.1568906e+00   5.4185696e-02
 -9.6753627e-01   2.4261530e-01
  1.8501868e+00   1.3578121e-01
 -1.0804453e-01   5.2906800e-02
  7.8306973e-01   5.9951331e-02
 -4.7422555e-01   1.2096297e-01
 -2.7327113e+00   8.2198016e-02
  6.4146179e-01   4.3798111e-02
 -5.5301145e-02   9.4593003e-02
  5.4082769e-01   1.2910514e-01
  4.5219177e-01   2.7208987e-01
 -1.9302747e+00   1.4109054e-01
  6.4267439e-01   1.6186464e-01
 -6.3669932e-01   7.1189277e-02
 -4.2746753e-01   2.5542011e-02
 -1.9535379e-01   1.7675611e-01
  8.7812197e-01   3.7862290e-02
 -6.0211098e-01   2.2095956e-01
  3.3303387e-02   2.8868921e-02
 -1.1951213e-01   6.7034841e-02
  7.9576272e-01   1.4247057e-01
  2.1112671e+00   4.2100318e-02
 -7.3014446e-02   3.5847221e-02
  2.5471067e-01   9.0234384e-02
 -1.3417305e+00   1.1083271e-01
 -1.0870287e-01   2.1971884e-01
 -1.3368744e-01   9.4910212e-02
  2.1093471e+00   4.5883387e-02
  7.1253069e-02   3.9689559e-02
  1.6241359e+00   8.0120742e-02
 -1.5212266e+00   3.0955859e-02
  1.0234295e+00   5.2450266e-02
 -8.9145474e-02   1.8109603e-01
 -6.1342800e-01   3.8489065e-01
 -4.1534185e-02   2.0924959e-01
  1.6740021e-01   1.7666166e-01
  1.0115657e+00   1.6025247e-02
 -1.0332544e+00   1.7858610e-02
  1.1938807e+00   8.6983234e-02
 -7.9443467e-01   1.0573737e-01
  1.8403189e-01   1.4646835e-02
 -1.0768888e+00   3.6528558e-02
 -1.3420113e+00   8.6169131e-02
 -1.7343137e-01   9.0375334e-02
  1.2654241e+00   4.5513559e-02
 -3.2300797e-01   1.3143446e-01
  5.6326419e-02   2.1932848e-01
 -2.0677292e-01   6.0714610e-02
 -5.2753878e-01   1.6826494e-01
  8.8928807e-01   9.6789420e-02
 -1.9415874e+00   2.6460296e-02
 -1.1764259e-01   1.0652781e-01
  3.7433589e-01   5.7145461e-02
  7.5289863e-01   1.1147270e-02
  4.9811667e-01   1.2760154e-02
 -2.3237926e-01   2.9045016e-01
  3.1942162e-01   2.4625206e-01
 -1.1528602e+00   1.8283001e-01
  3.6261952e-01   1.0560296e-01
 -5.9067392e-01   4.3945074e-02
 -1.2815523e+00   2.0720458e-01
 -1.3343594e+00   1.0831033e-01
  7.1942842e-01   5.1900271e-02
 -6.4358342e-01   8.2449056e-02
 -4.2107113e-02   9.6539572e-02
  2.8072097e+00   2.7659588e-02
 -1.3234444e-01   2.8879777e-01
  1.4687616e+00   1.4701720e-01
 -2.1848999e-01   4.6181507e-02
 -6.6943385e-02   4.3702203e-01
 -3.2370906e+00   1.2336288e-01
  7.5170410e-01   7.6992325e-02
 -1.9845737e+00   1.9320902e-01
 -1.8380597e+00   3.7164554e-02
  1.0849229e-01   1.3844590e-01
 -1.2287979e+00   1.3667901e-01
 -1.6948466e-01   5.7518706e-02
 -6.9437736e-01   4.0175851e-02
  6.9254196e-01   5.7629310e-02
 -5.9115130e-01   9.8922543e-02
 -2.6901388e+00   4.9570326e-02
 -1.5832913e+00   1.1970800e-01
  3.0765196e-02   7.9235531e-02
  7.2005028e-01   2.9276848e-01
 -9.1862953e-01   7.0205212e-02
 -9.8940301e-01   2.9171464e-01
 -1.2667012e+00   2.1250553e-01
  1.7449825e+00   3.4582838e-02
  1.7007439e+00   9.7440928e-02
  1.2588654e+00   1.7373663e-01
 -5.9400016e-01   1.5932250e-01
  1.9033358e+00   3.2322881e-01
  1.9116253e+00   6.1856937e-02
 -1.7340603e+00   9.3880542e-02
 -2.4367297e+00   2.5863016e-02
  1.4974880e+00   1.1617785e-01
 -2.3430321e+00   2.0040628e-02
  7.1446824e-01   1.7379351e-01
 -7.5891882e-01   1.1544126e-01
  2.5389085e+00   7.3502623e-02
  3.7167659e+00   1.0623419e-01
 -2.5397981e-02   1.0600892e-01
  1.3915097e-02   1.1036191e-01
  1.3640021e+00   4.1096348e-02
 -7.8812063e-01   5.3050723e-02
 -8.3440530e-01   1.4471819e-01
  1.0536723e+00   5.8344916e-02
 -2.4953194e+00   3.2097593e-02
 -6.3455380e-02   2.4813825e-02
 -2.4029835e-01   1.1985121e-01
 -1.7730660e+00   1.5202746e-03
 -1.4091197e+00   3.7146604e-03
 -1.2351192e+00   4.1560102e-03
 -1.5283402e+00   6.0752942e-03
 -2.3032722e+00   8.0330186e-03
  1.9080347e-01   6.7797191e-03
 -1.9289132e+00   1.2964012e-02
 -3.3896807e-01   3.7136029e-03
  6.4130783e-01   1.2058510e-02
  2.6646402e+00   1.1903717e-02
 -2.4432772e-01   1.4659546e-02
  3.9028714e+00   1.5330394e-02
 -3.2238615e+00   1.0887114e-02
 -3.6123607e+00   9.7372290e-03
  1.0345511e+00   2.3045747e-02
 -1.8744230e-01   4.0777229e-02
  3.4068656e+00   4.6119764e-03
 -1.1705345e+00   4.2506983e-03
  2.3115608e-01   1.9584086e-02
  3.2351842e+00   1.0581225e-02
  1.0065960e+00   1.2760498e-02
  1.9533271e+00   2.8238256e-02
 -3.0651138e+00   1.3413443e-02
  1.2952839e+00   1.0584855e-02
 -3.3152170e+00   1.1751489e-02
  1.8302962e+00   1.2826637e-02
  1.6312432e+00   4.7046528e-03
 -5.3200400e-01   1.0572998e-02
 -2.2689567e+00   5.7757068e-03
 -3.0644865e+00   3.2223113e-02
  2.6085901e-01   6.4432132e-03
  6.3678825e-01   8.4662456e-03
 -3.5860598e+00   8.5994406e-03
 -1.2883234e-01   1.0554296e-02
 -2.1493562e-01   1.1069437e-02
  1.5868638e-01   1.2253673e-02
  9.1760910e-01   2.1229872e-02
 -1.4108460e+00   2.8425693e-03
 -5.1378673e-01   1.0944474e-02
 -3.2133653e+00   4.8789751e-02
 -2.5741685e-02   1.3985700e-02
 -1.8491687e+00   1.0649367e-02
  1.7214936e+00   1.1757808e-02
  1.4410182e+00   4.2259529e-02
  5.1263773e-01   7.1146106e-03
 -1.0101537e+00   2.3837743e-02
  7.3433891e-02   4.0511064e-02
 -1.9980797e+00   2.2581520e-02
 -2.3012888e+00   4.0818542e-02
  5.4553527e-01   1.2139711e-01
  3.5710933e+00   1.9413803e-02
  2.5416136e-01   4.5108341e-02
 -2.6311202e+00   5.3921200e-02
  2.8601701e+00   2.3610083e-02
  1.2790493e+00   2.8279152e-02
  5.9134656e-01   3.3544548e-02
 -5.1639426e-01   2.9283797e-02
 -7.8121406e-01   4.9629938e-02
  8.1350374e-01   7.8763619e-02
  4.6842474e-02   4.6290834e-02
  8.2489604e-01   2.7802069e-02
  3.1734821e-01   1.5460189e-02
  3.2987597e+00   2.2866121e-02
  3.1346327e-01   5.4224310e-03
 -2.8065813e+00   4.0002182e-02
  6.5572186e+00   2.5283461e-02
 -1.0472674e+00   4.8714541e-02
  1.0175443e+00   7.8719733e-03
 -6.2620747e-01   2.6817529e-02
  8.5159224e-01   4.3086600e-02
  1.8190203e+00   6.7218980e-03
  1.9502681e+00   4.0418062e-02
 -2.5887400e-01   1.0859749e-02
  9.7896659e-01   3.7926186e-02
 -2.7412956e+00   9.7555425e-03
 -3.1938949e-01   3.7414965e-03
  4.3384013e-01   1.9800825e-02
  4.7913042e-01   8.0906311e-03
  3.4866282e-01   7.7394200e-03
  9.1571569e-01   2.7342162e-03
 -6.3084084e-01   2.0489413e-02
 -2.7822021e-01   2.8921757e-02
  1.1208139e-01   9.5425341e-03
  2.1315503e+00   5.0233640e-02
  2.6864510e-02   1.6345141e-02
  5.6094849e-01   4.9918719e-02