192
Lattice="11.3386828 0.0 0.11777414 0.0 11.25169458 0.0 -5.37701724 0.0 14.58216146" Properties=species:S:1:pos:R:3:forces:R:3:masses:R:1 energy=-137.40582713 stress="-2.8975812901838097e-05 -0.0 -9.885408259229043e-06 -0.0 0.0008475930508347611 -0.0 -9.885408259229043e-06 -0.0 0.0006117827630705121" free_energy=-137.40582713 pbc="T T T"
C        1.85630744       5.51464938       6.52571103      -0.00407034       0.01452999       0.00861086      12.01100000
C        3.33245672       1.83029656       3.74324368      -0.00329775      -0.00922472       0.00305019      12.01100000
C       -1.69587825       4.64322021       7.25226448       0.00329775      -0.00922472      -0.00305019      12.01100000
C       -0.35162394       3.79555073       3.60672412       0.00329775       0.00922472      -0.00305019      12.01100000
C        4.67671103       0.98262708       0.09770332      -0.00329775       0.00922472       0.00305019      12.01100000
C        0.13149253       1.09558763       0.86464843      -0.02518483       0.00015306      -0.01148641      12.01100000
C       -1.21276178       1.71733602       4.51018879      -0.02518483      -0.00015306      -0.01148641      12.01100000
C        2.84934025       4.53025966       6.48531937       0.02518483      -0.00015306       0.01148641      12.01100000
C        4.19359456       3.90851127       2.83977901       0.02518483       0.00015306       0.01148641      12.01100000
C        3.20056175       2.92412155       2.88017066      -0.00407034      -0.01452999       0.00861086      12.01100000
C        1.12452534       0.11119791       0.82425677       0.00407034      -0.01452999      -0.00861086      12.01100000
C       -0.21972897       2.70172574       4.46979714       0.00407034       0.01452999      -0.00861086      12.01100000
H        2.00725363       0.19754330       1.46628104       0.01211326       0.00493941      -0.00065574       1.00800000
H        0.66299932       2.61538034       5.11182140       0.01211326      -0.00493941      -0.00065574       1.00800000
H       -0.91691099       3.87385200       7.21144726       0.00177623      -0.00130935       0.00453697       1.00800000
H        2.76003314       3.67474798       5.80736451       0.01406657       0.01026965      -0.00741801       1.00800000
H       -1.12345467       0.86182433       5.18814366      -0.01406657       0.01026965       0.00741801       1.00800000
H        0.22079964       1.95109931       1.54260329      -0.01406657      -0.01026965       0.00741801       1.00800000
H        4.10428745       4.76402296       2.16182414       0.01406657      -0.01026965      -0.00741801       1.00800000
H        0.97357915       5.42830399       5.88368676      -0.01211326      -0.00493941       0.00065574       1.00800000
H        3.89774377       1.75199529       0.13852054      -0.00177623       0.00130935      -0.00453697       1.00800000
H        0.42734332       4.56491893       3.56590689       0.00177623       0.00130935       0.00453697       1.00800000
H        2.31783346       3.01046695       2.23814640      -0.01211326       0.00493941       0.00065574       1.00800000
H        2.55348946       1.06092836       3.78406091      -0.00177623      -0.00130935      -0.00453697       1.00800000
C       -0.83220118       5.51464938      13.81679176      -0.00407034       0.01452999       0.00861086      12.01100000
C        0.64394810       1.83029656      11.03432441      -0.00329775      -0.00922472       0.00305019      12.01100000
C       -4.38438687       4.64322021      14.54334521       0.00329775      -0.00922472      -0.00305019      12.01100000
C       -3.04013256       3.79555073      10.89780485       0.00329775       0.00922472      -0.00305019      12.01100000
C        1.98820241       0.98262708       7.38878405      -0.00329775       0.00922472       0.00305019      12.01100000
C       -2.55701609       1.09558763       8.15572916      -0.02518483       0.00015306      -0.01148641      12.01100000
C       -3.90127040       1.71733602      11.80126952      -0.02518483      -0.00015306      -0.01148641      12.01100000
C        0.16083163       4.53025966      13.77640010       0.02518483      -0.00015306       0.01148641      12.01100000
C        1.50508594       3.90851127      10.13085974       0.02518483       0.00015306       0.01148641      12.01100000
C        0.51205313       2.92412155      10.17125139      -0.00407034      -0.01452999       0.00861086      12.01100000
C       -1.56398328       0.11119791       8.11533750       0.00407034      -0.01452999      -0.00861086      12.01100000
C       -2.90823759       2.70172574      11.76087787       0.00407034       0.01452999      -0.00861086      12.01100000
H       -0.68125499       0.19754330       8.75736177       0.01211326       0.00493941      -0.00065574       1.00800000
H       -2.02550930       2.61538034      12.40290213       0.01211326      -0.00493941      -0.00065574       1.00800000
H       -3.60541961       3.87385200      14.50252799       0.00177623      -0.00130935       0.00453697       1.00800000
H        0.07152452       3.67474798      13.09844524       0.01406657       0.01026965      -0.00741801       1.00800000
H       -3.81196329       0.86182433      12.47922439      -0.01406657       0.01026965       0.00741801       1.00800000
H       -2.46770898       1.95109931       8.83368402      -0.01406657      -0.01026965       0.00741801       1.00800000
H        1.41577883       4.76402296       9.45290487       0.01406657      -0.01026965      -0.00741801       1.00800000
H       -1.71492947       5.42830399      13.17476749      -0.01211326      -0.00493941       0.00065574       1.00800000
H        1.20923515       1.75199529       7.42960127      -0.00177623       0.00130935      -0.00453697       1.00800000
H       -2.26116530       4.56491893      10.85698762       0.00177623       0.00130935       0.00453697       1.00800000
H       -0.37067516       3.01046695       9.52922713      -0.01211326       0.00493941       0.00065574       1.00800000
H       -0.13501916       1.06092836      11.07514164      -0.00177623      -0.00130935      -0.00453697       1.00800000
C        1.85630744      11.14049667       6.52571103      -0.00407034       0.01452999       0.00861086      12.01100000
C        3.33245672       7.45614385       3.74324368      -0.00329775      -0.00922472       0.00305019      12.01100000
C       -1.69587825      10.26906750       7.25226448       0.00329775      -0.00922472      -0.00305019      12.01100000
C       -0.35162394       9.42139802       3.60672412       0.00329775       0.00922472      -0.00305019      12.01100000
C        4.67671103       6.60847437       0.09770332      -0.00329775       0.00922472       0.00305019      12.01100000
C        0.13149253       6.72143492       0.86464843      -0.02518483       0.00015306      -0.01148641      12.01100000
C       -1.21276178       7.34318331       4.51018879      -0.02518483      -0.00015306      -0.01148641      12.01100000
C        2.84934025      10.15610695       6.48531937       0.02518483      -0.00015306       0.01148641      12.01100000
C        4.19359456       9.53435856       2.83977901       0.02518483       0.00015306       0.01148641      12.01100000
C        3.20056175       8.54996884       2.88017066      -0.00407034      -0.01452999       0.00861086      12.01100000
C        1.12452534       5.73704520       0.82425677       0.00407034      -0.01452999      -0.00861086      12.01100000
C       -0.21972897       8.32757303       4.46979714       0.00407034       0.01452999      -0.00861086      12.01100000
H        2.00725363       5.82339059       1.46628104       0.01211326       0.00493941      -0.00065574       1.00800000
H        0.66299932       8.24122763       5.11182140       0.01211326      -0.00493941      -0.00065574       1.00800000
H       -0.91691099       9.49969929       7.21144726       0.00177623      -0.00130935       0.00453697       1.00800000
H        2.76003314       9.30059527       5.80736451       0.01406657       0.01026965      -0.00741801       1.00800000
H       -1.12345467       6.48767162       5.18814366      -0.01406657       0.01026965       0.00741801       1.00800000
H        0.22079964       7.57694660       1.54260329      -0.01406657      -0.01026965       0.00741801       1.00800000
H        4.10428745      10.38987025       2.16182414       0.01406657      -0.01026965      -0.00741801       1.00800000
H        0.97357915      11.05415128       5.88368676      -0.01211326      -0.00493941       0.00065574       1.00800000
H        3.89774377       7.37784258       0.13852054      -0.00177623       0.00130935      -0.00453697       1.00800000
H        0.42734332      10.19076622       3.56590689       0.00177623       0.00130935       0.00453697       1.00800000
H        2.31783346       8.63631424       2.23814640      -0.01211326       0.00493941       0.00065574       1.00800000
H        2.55348946       6.68677565       3.78406091      -0.00177623      -0.00130935      -0.00453697       1.00800000
C       -0.83220118      11.14049667      13.81679176      -0.00407034       0.01452999       0.00861086      12.01100000
C        0.64394810       7.45614385      11.03432441      -0.00329775      -0.00922472       0.00305019      12.01100000
C       -4.38438687      10.26906750      14.54334521       0.00329775      -0.00922472      -0.00305019      12.01100000
C       -3.04013256       9.42139802      10.89780485       0.00329775       0.00922472      -0.00305019      12.01100000
C        1.98820241       6.60847437       7.38878405      -0.00329775       0.00922472       0.00305019      12.01100000
C       -2.55701609       6.72143492       8.15572916      -0.02518483       0.00015306      -0.01148641      12.01100000
C       -3.90127040       7.34318331      11.80126952      -0.02518483      -0.00015306      -0.01148641      12.01100000
C        0.16083163      10.15610695      13.77640010       0.02518483      -0.00015306       0.01148641      12.01100000
C        1.50508594       9.53435856      10.13085974       0.02518483       0.00015306       0.01148641      12.01100000
C        0.51205313       8.54996884      10.17125139      -0.00407034      -0.01452999       0.00861086      12.01100000
C       -1.56398328       5.73704520       8.11533750       0.00407034      -0.01452999      -0.00861086      12.01100000
C       -2.90823759       8.32757303      11.76087787       0.00407034       0.01452999      -0.00861086      12.01100000
H       -0.68125499       5.82339059       8.75736177       0.01211326       0.00493941      -0.00065574       1.00800000
H       -2.02550930       8.24122763      12.40290213       0.01211326      -0.00493941      -0.00065574       1.00800000
H       -3.60541961       9.49969929      14.50252799       0.00177623      -0.00130935       0.00453697       1.00800000
H        0.07152452       9.30059527      13.09844524       0.01406657       0.01026965      -0.00741801       1.00800000
H       -3.81196329       6.48767162      12.47922439      -0.01406657       0.01026965       0.00741801       1.00800000
H       -2.46770898       7.57694660       8.83368402      -0.01406657      -0.01026965       0.00741801       1.00800000
H        1.41577883      10.38987025       9.45290487       0.01406657      -0.01026965      -0.00741801       1.00800000
H       -1.71492947      11.05415128      13.17476749      -0.01211326      -0.00493941       0.00065574       1.00800000
H        1.20923515       7.37784258       7.42960127      -0.00177623       0.00130935      -0.00453697       1.00800000
H       -2.26116530      10.19076622      10.85698762       0.00177623       0.00130935       0.00453697       1.00800000
H       -0.37067516       8.63631424       9.52922713      -0.01211326       0.00493941       0.00065574       1.00800000
H       -0.13501916       6.68677565      11.07514164      -0.00177623      -0.00130935      -0.00453697       1.00800000
C        7.52564884       5.51464938       6.58459810      -0.00407034       0.01452999       0.00861086      12.01100000
C        9.00179812       1.83029656       3.80213075      -0.00329775      -0.00922472       0.00305019      12.01100000
C        3.97346315       4.64322021       7.31115155       0.00329775      -0.00922472      -0.00305019      12.01100000
C        5.31771746       3.79555073       3.66561119       0.00329775       0.00922472      -0.00305019      12.01100000
C       10.34605243       0.98262708       0.15659039      -0.00329775       0.00922472       0.00305019      12.01100000
C        5.80083393       1.09558763       0.92353550      -0.02518483       0.00015306      -0.01148641      12.01100000
C        4.45657962       1.71733602       4.56907586      -0.02518483      -0.00015306      -0.01148641      12.01100000
C        8.51868165       4.53025966       6.54420644       0.02518483      -0.00015306       0.01148641      12.01100000
C        9.86293596       3.90851127       2.89866608       0.02518483       0.00015306       0.01148641      12.01100000
C        8.86990315       2.92412155       2.93905773      -0.00407034      -0.01452999       0.00861086      12.01100000
C        6.79386674       0.11119791       0.88314384       0.00407034      -0.01452999      -0.00861086      12.01100000
C        5.44961243       2.70172574       4.52868421       0.00407034       0.01452999      -0.00861086      12.01100000
H        7.67659503       0.19754330       1.52516811       0.01211326       0.00493941      -0.00065574       1.00800000
H        6.33234072       2.61538034       5.17070847       0.01211326      -0.00493941      -0.00065574       1.00800000
H        4.75243041       3.87385200       7.27033433       0.00177623      -0.00130935       0.00453697       1.00800000
H        8.42937454       3.67474798       5.86625158       0.01406657       0.01026965      -0.00741801       1.00800000
H        4.54588673       0.86182433       5.24703073      -0.01406657       0.01026965       0.00741801       1.00800000
H        5.89014104       1.95109931       1.60149036      -0.01406657      -0.01026965       0.00741801       1.00800000
H        9.77362885       4.76402296       2.22071121       0.01406657      -0.01026965      -0.00741801       1.00800000
H        6.64292055       5.42830399       5.94257383      -0.01211326      -0.00493941       0.00065574       1.00800000
H        9.56708517       1.75199529       0.19740761      -0.00177623       0.00130935      -0.00453697       1.00800000
H        6.09668472       4.56491893       3.62479396       0.00177623       0.00130935       0.00453697       1.00800000
H        7.98717486       3.01046695       2.29703347      -0.01211326       0.00493941       0.00065574       1.00800000
H        8.22283086       1.06092836       3.84294798      -0.00177623      -0.00130935      -0.00453697       1.00800000
C        4.83714022       5.51464938      13.87567883      -0.00407034       0.01452999       0.00861086      12.01100000
C        6.31328950       1.83029656      11.09321148      -0.00329775      -0.00922472       0.00305019      12.01100000
C        1.28495453       4.64322021      14.60223228       0.00329775      -0.00922472      -0.00305019      12.01100000
C        2.62920884       3.79555073      10.95669192       0.00329775       0.00922472      -0.00305019      12.01100000
C        7.65754381       0.98262708       7.44767112      -0.00329775       0.00922472       0.00305019      12.01100000
C        3.11232531       1.09558763       8.21461623      -0.02518483       0.00015306      -0.01148641      12.01100000
C        1.76807100       1.71733602      11.86015659      -0.02518483      -0.00015306      -0.01148641      12.01100000
C        5.83017303       4.53025966      13.83528717       0.02518483      -0.00015306       0.01148641      12.01100000
C        7.17442734       3.90851127      10.18974681       0.02518483       0.00015306       0.01148641      12.01100000
C        6.18139453       2.92412155      10.23013846      -0.00407034      -0.01452999       0.00861086      12.01100000
C        4.10535812       0.11119791       8.17422457       0.00407034      -0.01452999      -0.00861086      12.01100000
C        2.76110381       2.70172574      11.81976494       0.00407034       0.01452999      -0.00861086      12.01100000
H        4.98808641       0.19754330       8.81624884       0.01211326       0.00493941      -0.00065574       1.00800000
H        3.64383210       2.61538034      12.46178920       0.01211326      -0.00493941      -0.00065574       1.00800000
H        2.06392179       3.87385200      14.56141506       0.00177623      -0.00130935       0.00453697       1.00800000
H        5.74086592       3.67474798      13.15733231       0.01406657       0.01026965      -0.00741801       1.00800000
H        1.85737811       0.86182433      12.53811146      -0.01406657       0.01026965       0.00741801       1.00800000
H        3.20163242       1.95109931       8.89257109      -0.01406657      -0.01026965       0.00741801       1.00800000
H        7.08512023       4.76402296       9.51179194       0.01406657      -0.01026965      -0.00741801       1.00800000
H        3.95441193       5.42830399      13.23365456      -0.01211326      -0.00493941       0.00065574       1.00800000
H        6.87857655       1.75199529       7.48848834      -0.00177623       0.00130935      -0.00453697       1.00800000
H        3.40817610       4.56491893      10.91587469       0.00177623       0.00130935       0.00453697       1.00800000
H        5.29866624       3.01046695       9.58811420      -0.01211326       0.00493941       0.00065574       1.00800000
H        5.53432224       1.06092836      11.13402871      -0.00177623      -0.00130935      -0.00453697       1.00800000
C        7.52564884      11.14049667       6.58459810      -0.00407034       0.01452999       0.00861086      12.01100000
C        9.00179812       7.45614385       3.80213075      -0.00329775      -0.00922472       0.00305019      12.01100000
C        3.97346315      10.26906750       7.31115155       0.00329775      -0.00922472      -0.00305019      12.01100000
C        5.31771746       9.42139802       3.66561119       0.00329775       0.00922472      -0.00305019      12.01100000
C       10.34605243       6.60847437       0.15659039      -0.00329775       0.00922472       0.00305019      12.01100000
C        5.80083393       6.72143492       0.92353550      -0.02518483       0.00015306      -0.01148641      12.01100000
C        4.45657962       7.34318331       4.56907586      -0.02518483      -0.00015306      -0.01148641      12.01100000
C        8.51868165      10.15610695       6.54420644       0.02518483      -0.00015306       0.01148641      12.01100000
C        9.86293596       9.53435856       2.89866608       0.02518483       0.00015306       0.01148641      12.01100000
C        8.86990315       8.54996884       2.93905773      -0.00407034      -0.01452999       0.00861086      12.01100000
C        6.79386674       5.73704520       0.88314384       0.00407034      -0.01452999      -0.00861086      12.01100000
C        5.44961243       8.32757303       4.52868421       0.00407034       0.01452999      -0.00861086      12.01100000
H        7.67659503       5.82339059       1.52516811       0.01211326       0.00493941      -0.00065574       1.00800000
H        6.33234072       8.24122763       5.17070847       0.01211326      -0.00493941      -0.00065574       1.00800000
H        4.75243041       9.49969929       7.27033433       0.00177623      -0.00130935       0.00453697       1.00800000
H        8.42937454       9.30059527       5.86625158       0.01406657       0.01026965      -0.00741801       1.00800000
H        4.54588673       6.48767162       5.24703073      -0.01406657       0.01026965       0.00741801       1.00800000
H        5.89014104       7.57694660       1.60149036      -0.01406657      -0.01026965       0.00741801       1.00800000
H        9.77362885      10.38987025       2.22071121       0.01406657      -0.01026965      -0.00741801       1.00800000
H        6.64292055      11.05415128       5.94257383      -0.01211326      -0.00493941       0.00065574       1.00800000
H        9.56708517       7.37784258       0.19740761      -0.00177623       0.00130935      -0.00453697       1.00800000
H        6.09668472      10.19076622       3.62479396       0.00177623       0.00130935       0.00453697       1.00800000
H        7.98717486       8.63631424       2.29703347      -0.01211326       0.00493941       0.00065574       1.00800000
H        8.22283086       6.68677565       3.84294798      -0.00177623      -0.00130935      -0.00453697       1.00800000
C        4.83714022      11.14049667      13.87567883      -0.00407034       0.01452999       0.00861086      12.01100000
C        6.31328950       7.45614385      11.09321148      -0.00329775      -0.00922472       0.00305019      12.01100000
C        1.28495453      10.26906750      14.60223228       0.00329775      -0.00922472      -0.00305019      12.01100000
C        2.62920884       9.42139802      10.95669192       0.00329775       0.00922472      -0.00305019      12.01100000
C        7.65754381       6.60847437       7.44767112      -0.00329775       0.00922472       0.00305019      12.01100000
C        3.11232531       6.72143492       8.21461623      -0.02518483       0.00015306      -0.01148641      12.01100000
C        1.76807100       7.34318331      11.86015659      -0.02518483      -0.00015306      -0.01148641      12.01100000
C        5.83017303      10.15610695      13.83528717       0.02518483      -0.00015306       0.01148641      12.01100000
C        7.17442734       9.53435856      10.18974681       0.02518483       0.00015306       0.01148641      12.01100000
C        6.18139453       8.54996884      10.23013846      -0.00407034      -0.01452999       0.00861086      12.01100000
C        4.10535812       5.73704520       8.17422457       0.00407034      -0.01452999      -0.00861086      12.01100000
C        2.76110381       8.32757303      11.81976494       0.00407034       0.01452999      -0.00861086      12.01100000
H        4.98808641       5.82339059       8.81624884       0.01211326       0.00493941      -0.00065574       1.00800000
H        3.64383210       8.24122763      12.46178920       0.01211326      -0.00493941      -0.00065574       1.00800000
H        2.06392179       9.49969929      14.56141506       0.00177623      -0.00130935       0.00453697       1.00800000
H        5.74086592       9.30059527      13.15733231       0.01406657       0.01026965      -0.00741801       1.00800000
H        1.85737811       6.48767162      12.53811146      -0.01406657       0.01026965       0.00741801       1.00800000
H        3.20163242       7.57694660       8.89257109      -0.01406657      -0.01026965       0.00741801       1.00800000
H        7.08512023      10.38987025       9.51179194       0.01406657      -0.01026965      -0.00741801       1.00800000
H        3.95441193      11.05415128      13.23365456      -0.01211326      -0.00493941       0.00065574       1.00800000
H        6.87857655       7.37784258       7.48848834      -0.00177623       0.00130935      -0.00453697       1.00800000
H        3.40817610      10.19076622      10.91587469       0.00177623       0.00130935       0.00453697       1.00800000
H        5.29866624       8.63631424       9.58811420      -0.01211326       0.00493941       0.00065574       1.00800000
H        5.53432224       6.68677565      11.13402871      -0.00177623      -0.00130935      -0.00453697       1.00800000
