 vasp.6.3.2 27Jun22 (build Sep 19 2022 15:15:44) complex                         
 executed on             LinuxGNU date 2022.11.22  11:33:57
 running on   64 total cores
 distrk:  each k-point on   64 cores,    1 groups
 distr:  one band on NCORE=   8 cores,    8 groups


--------------------------------------------------------------------------------------------------------


 INCAR:
   SYSTEM = H2O_liquid
   NCORE = 8
   GGA = RP
   ENCUT = 800
   IVDW = 11
   ISMEAR = 0
   SIGMA = 0.05
   LREAL = Auto
   NELM = 100
   EDIFF = 1E-6
   NELMIN = 4
   ALGO = Normal
   ISYM = 0
   LWAVE = .FALSE.
   LCHARG = .FALSE.
   AMIX = 0.8
   BMIX = 0.2
   LEPSILON = .TRUE.

 POTCAR:    PAW_PBE H_h 06Feb2004                 
 POTCAR:    PAW_PBE O_h 19Jan2021                 
 POTCAR:    PAW_PBE H_h 06Feb2004                 
   SHA256 =  143491dd1ce685661e07aa76f96d5d154a7e3c51c1da76ab67ad499446e4b766 H_h/POTCAR            
   COPYR  = (c) Copyright 06Feb2004 Georg Kresse                                                    
   COPYR  = This file is part of the software VASP. Any use, copying, and all other rights are regul
   COPYR  = If you do not have a valid VASP license, you may not use, copy or distribute this file. 
   VRHFIN =H: ultrasoft test                                                                        
   LEXCH  = PE                                                                                      
   EATOM  =    12.4884 eV,    0.9179 Ry                                                             
                                                                                                    
   TITEL  = PAW_PBE H_h 06Feb2004                                                                   
   LULTRA =        F    use ultrasoft PP ?                                                          
   IUNSCR =        0    unscreen: 0-lin 1-nonlin 2-no                                               
   RPACOR =    0.000    partial core radius                                                         
   POMASS =    1.000; ZVAL   =    1.000    mass and valenz                                          
   RCORE  =    0.800    outmost cutoff radius                                                       
   RWIGS  =    0.700; RWIGS  =    0.370    wigner-seitz radius (au A)                               
   ENMAX  =  700.000; ENMIN  =  350.000 eV                                                          
   RCLOC  =    0.701    cutoff for local pot                                                        
   LCOR   =        T    correct aug charges                                                         
   LPAW   =        T    paw PP                                                                      
   EAUG   = 1000.000                                                                                
   RMAX   =    0.819    core radius for proj-oper                                                   
   RAUG   =    1.000    factor for augmentation sphere                                              
   RDEP   =    0.817    radius for radial grids                                                     
   RDEPT  =    0.817    core radius for aug-charge                                                  
                                                                                                    
   Atomic configuration                                                                             
    2 entries                                                                                       
     n  l   j            E        occ.                                                              
     1  0  0.50        -6.4927   1.0000                                                             
     2  1  0.50        -3.4015   0.0000                                                             
   Description                                                                                      
     l       E           TYP  RCUT    TYP  RCUT                                                     
     0     -6.4927493     23  0.800                                                                 
     0      6.8029130     23  0.800                                                                 
     1     -6.8029130     23  0.800                                                                 
  local pseudopotential read in
  atomic valenz-charges read in
  non local Contribution for L=            0  read in
    real space projection operators read in
  non local Contribution for L=            0  read in
    real space projection operators read in
  non local Contribution for L=            1  read in
    real space projection operators read in
    PAW grid and wavefunctions read in
 
   number of l-projection  operators is LMAX  =            3
   number of lm-projection operators is LMMAX =            5
 
 POTCAR:    PAW_PBE O_h 19Jan2021                 
   SHA256 =  1cdf590b45c5c7cbed279716b967f68bc765418a70c73ed03a65bd9300b2fbdb O_h/POTCAR            
   COPYR  = (c) Copyright 19Jan2021 Georg Kresse                                                    
   COPYR  = This file is part of the software VASP. Any use, copying, and all other rights are regul
   COPYR  = If you do not have a valid VASP license, you may not use, copy or distribute this file. 
   VRHFIN =O: s2p4                                                                                  
   LEXCH  = PE                                                                                      
   EATOM  =   432.3788 eV,   31.7789 Ry                                                             
                                                                                                    
   TITEL  = PAW_PBE O_h 19Jan2021                                                                   
   LULTRA =        F    use ultrasoft PP ?                                                          
   IUNSCR =        1    unscreen: 0-lin 1-nonlin 2-no                                               
   RPACOR =    0.800    partial core radius                                                         
   POMASS =   16.000; ZVAL   =    6.000    mass and valenz                                          
   RCORE  =    1.100    outmost cutoff radius                                                       
   RWIGS  =    1.200; RWIGS  =    0.635    wigner-seitz radius (au A)                               
   ENMAX  =  765.519; ENMIN  =  574.139 eV                                                          
   ICORE  =        2    local potential                                                             
   LCOR   =        T    correct aug charges                                                         
   LPAW   =        T    paw PP                                                                      
   EAUG   = 1483.080                                                                                
   DEXC   =   -0.000                                                                                
   RMAX   =    1.128    core radius for proj-oper                                                   
   RAUG   =    1.300    factor for augmentation sphere                                              
   RDEP   =    1.125    radius for radial grids                                                     
   RDEPT  =    0.866    core radius for aug-charge                                                  
                                                                                                    
   Atomic configuration                                                                             
    4 entries                                                                                       
     n  l   j            E        occ.                                                              
     1  0  0.50      -514.6923   2.0000                                                             
     2  0  0.50       -23.9615   2.0000                                                             
     2  1  0.50        -9.0305   4.0000                                                             
     3  2  1.50        -9.5241   0.0000                                                             
   Description                                                                                      
     l       E           TYP  RCUT    TYP  RCUT                                                     
     0    -23.9615319     23  1.000                                                                 
     0     40.8174780     23  1.000                                                                 
     1     -9.0304911     23  1.100                                                                 
     1    -20.4087390     23  1.100                                                                 
     2     -9.5240782      7  1.100                                                                 
  local pseudopotential read in
  partial core-charges read in
  partial kinetic energy density read in
  kinetic energy density of atom read in
  atomic valenz-charges read in
  non local Contribution for L=            0  read in
    real space projection operators read in
  non local Contribution for L=            0  read in
    real space projection operators read in
  non local Contribution for L=            1  read in
    real space projection operators read in
  non local Contribution for L=            1  read in
    real space projection operators read in
    PAW grid and wavefunctions read in
 
   number of l-projection  operators is LMAX  =            4
   number of lm-projection operators is LMMAX =            8
 
 Optimization of the real space projectors (new method)

 maximal supplied QI-value         = 47.24
 optimisation between [QCUT,QGAM] = [ 14.17, 28.82] = [ 56.25,232.56] Ry 
 Optimized for a Real-space Cutoff    0.92 Angstroem

   l    n(q)    QCUT    max X(q) W(low)/X(q) W(high)/X(q)  e(spline) 
   0      8    14.173    34.671    0.43E-03    0.71E-03    0.22E-06
   0      8    14.173    17.046    0.41E-03    0.69E-03    0.22E-06
   1      7    14.173     1.978    0.26E-04    0.31E-03    0.27E-06
 Optimization of the real space projectors (new method)

 maximal supplied QI-value         = 34.20
 optimisation between [QCUT,QGAM] = [ 14.37, 28.73] = [ 57.79,231.16] Ry 
 Optimized for a Real-space Cutoff    0.87 Angstroem

   l    n(q)    QCUT    max X(q) W(low)/X(q) W(high)/X(q)  e(spline) 
   0      7    14.366     7.171    0.41E-03    0.57E-03    0.15E-06
   0      7    14.366     4.205    0.39E-03    0.56E-03    0.16E-06
   1      7    14.366    28.285    0.33E-03    0.58E-03    0.13E-06
   1      7    14.366    22.607    0.35E-03    0.61E-03    0.13E-06
 -----------------------------------------------------------------------------
|                                                                             |
|               ----> ADVICE to this user running VASP <----                  |
|                                                                             |
|     You enforced a specific xc type in the INCAR file but a different       |
|     type was found in the POTCAR file.                                      |
|     I HOPE YOU KNOW WHAT YOU ARE DOING!                                     |
|                                                                             |
 -----------------------------------------------------------------------------

  PAW_PBE H_h 06Feb2004                 :
 energy of atom  1       EATOM=  -12.4884
 kinetic energy error for atom=    0.0035 (will be added to EATOM!!)
  PAW_PBE O_h 19Jan2021                 :
 energy of atom  2       EATOM= -432.3788
 kinetic energy error for atom=    0.0522 (will be added to EATOM!!)
 
 
 POSCAR: H2O_liquid
  positions in direct lattice
  No initial velocities read in
 exchange correlation table for  LEXCH =        9
   RHO(1)=    0.500       N(1)  =     2000
   RHO(2)=  100.500       N(2)  =     4000
 


--------------------------------------------------------------------------------------------------------


 ion  position               nearest neighbor table
   1  0.394  0.585  0.260- 129 1.03
   2  0.434  0.926  0.354- 130 0.99
   3  0.803  0.872  0.040- 131 0.96
   4  0.186  0.800  0.392- 132 1.00
   5  0.210  0.008  0.429- 133 0.99
   6  0.263  0.972  0.769- 134 1.00
   7  0.448  0.754  0.334- 135 1.00
   8  0.785  0.956  0.469- 136 1.02
   9  0.363  0.223  0.222- 137 0.96
  10  0.292  0.186  0.523- 138 1.00
  11  0.005  0.226  0.936- 139 0.96
  12  0.683  0.540  0.571- 140 0.96
  13  0.728  0.267  0.757- 141 1.01
  14  0.903  0.034  0.385- 142 0.99
  15  0.301  0.733  0.907- 143 0.99
  16  0.690  0.627  0.230- 144 0.98
  17  0.577  0.788  0.652- 145 0.99
  18  0.630  0.931  0.097- 146 0.97
  19  0.559  0.782  0.027- 147 0.96
  20  0.943  0.105  0.129- 148 0.99
  21  0.599  0.388  0.196- 149 0.98
  22  0.373  1.000  0.075- 150 0.97
  23  0.835  0.445  0.397- 151 1.01
  24  0.818  0.561  0.754- 152 1.02
  25  0.418  0.066  0.817- 153 1.00
  26  0.308  0.331  0.968- 154 0.98
  27  0.114  0.801  0.204- 155 0.97
  28  0.199  0.225  0.823- 156 0.97
  29  0.022  0.139  0.727- 157 1.00
  30  0.951  0.723  0.940- 158 1.02
  31  0.260  0.392  0.599- 159 0.99
  32  0.711  0.645  0.032- 160 0.99
  33  0.432  0.501  0.182- 129 0.99
  34  0.352  0.888  0.258- 130 0.96
  35  0.776  0.875  0.170- 131 1.01
  36  0.079  0.857  0.374- 132 1.00
  37  0.210  0.035  0.553- 133 0.94
  38  0.148  0.953  0.763- 134 0.97
  39  0.401  0.678  0.416- 135 0.98
  40  0.704  0.876  0.520- 136 0.94
  41  0.461  0.215  0.295- 137 1.01
  42  0.358  0.234  0.623- 138 1.00
  43  0.896  0.214  0.979- 139 1.00
  44  0.572  0.516  0.526- 140 0.96
  45  0.846  0.215  0.726- 141 1.02
  46  0.802  0.086  0.339- 142 1.01
  47  0.371  0.663  0.822- 143 0.95
  48  0.616  0.675  0.307- 144 1.00
  49  0.560  0.728  0.548- 145 0.97
  50  0.524  0.932  0.163- 146 0.98
  51  0.497  0.701  0.959- 147 0.98
  52  0.997  0.015  0.058- 148 1.02
  53  0.661  0.434  0.288- 149 1.00
  54  0.274  0.048  0.126- 150 0.94
  55  0.854  0.451  0.265- 151 0.98
  56  0.759  0.676  0.726- 152 0.97
  57  0.420  0.954  0.884- 153 0.96
  58  0.367  0.227  0.985- 154 0.97
  59  0.131  0.687  0.155- 155 0.96
  60  0.179  0.208  0.699- 156 0.98
  61  0.955  0.123  0.628- 157 0.97
  62  0.977  0.766  0.063- 158 1.00
  63  0.245  0.512  0.555- 159 0.97
  64  0.834  0.644  0.048- 160 1.00
  65  0.346  0.361  0.407- 163 0.97
  66  0.981  0.588  0.416- 164 0.99
  67  0.228  0.699  0.542- 165 0.98
  68  0.169  0.329  0.352- 166 0.99
  69  0.108  0.491  0.146- 167 1.01
  70  0.116  0.467  0.686- 168 1.02
  71  0.714  0.007  0.616- 161 1.00
  72  0.925  0.959  0.715- 162 1.01
  73  0.511  0.128  0.666- 171 0.97
  74  0.792  0.275  0.309- 172 1.05
  75  0.148  0.731  0.711- 173 0.96
  76  0.843  0.469  0.928- 174 0.99
  77  0.544  0.329  0.442- 175 1.02
  78  0.663  0.435  0.047- 176 1.00
  79  0.824  0.347  0.588- 169 0.94
  80  0.125  0.140  0.134- 170 0.97
  81  0.953  0.647  0.775- 179 1.03
  82  0.235  0.900  0.013- 180 1.04
  83  0.761  0.078  0.923- 181 0.99
  84  0.666  0.813  0.814- 182 0.98
  85  0.680  0.980  0.768- 183 1.02
  86  0.636  0.409  0.812- 184 0.99
  87  0.490  0.928  0.535- 177 1.00
  88  0.013  0.342  0.244- 178 1.03
  89  0.910  0.252  0.492- 187 0.97
  90  0.103  0.908  0.925- 188 1.05
  91  0.825  0.630  0.542- 189 0.99
  92  0.988  0.845  0.536- 190 0.92
  93  0.639  0.162  0.357- 191 0.98
  94  0.431  0.448  0.874- 192 1.01
  95  0.505  0.190  0.093- 185 0.98
  96  0.368  0.532  0.684- 186 0.96
  97  0.924  0.413  0.618- 169 1.01
  98  0.219  0.215  0.095- 170 0.98
  99  0.507  0.225  0.744- 171 0.99
 100  0.716  0.238  0.221- 172 0.99
 101  0.236  0.817  0.668- 173 0.99
 102  0.891  0.395  0.839- 174 0.97
 103  0.488  0.331  0.552- 175 0.99
 104  0.543  0.429  0.020- 176 1.02
 105  0.392  0.997  0.509- 177 0.97
 106  0.984  0.334  0.120- 178 0.97
 107  0.955  0.769  0.762- 179 1.02
 108  0.162  0.800  0.022- 180 0.99
 109  0.689  0.177  0.966- 181 0.99
 110  0.606  0.707  0.846- 182 0.99
 111  0.786  0.921  0.796- 183 0.96
 112  0.601  0.330  0.905- 184 0.97
 113  0.488  0.101  0.011- 185 0.94
 114  0.474  0.586  0.670- 186 0.96
 115  0.012  0.224  0.425- 187 1.04
 116  0.987  0.908  0.899- 188 0.97
 117  0.790  0.665  0.416- 189 1.02
 118  0.931  0.749  0.475- 190 1.02
 119  0.558  0.106  0.421- 191 0.97
 120  0.379  0.533  0.951- 192 0.98
 121  0.696  0.116  0.663- 161 0.98
 122  0.847  0.893  0.646- 162 1.01
 123  0.305  0.441  0.332- 163 0.94
 124  0.056  0.550  0.315- 164 0.96
 125  0.152  0.636  0.448- 165 1.02
 126  0.142  0.237  0.276- 166 0.97
 127  0.235  0.537  0.155- 167 0.97
 128  0.059  0.378  0.745- 168 0.97
 129  0.363  0.522  0.216-  33 0.99   1 1.03
 130  0.420  0.876  0.294-  34 0.96   2 0.99
 131  0.768  0.910  0.098-   3 0.96  35 1.01
 132  0.154  0.856  0.344-  36 1.00   4 1.00
 133  0.243  0.052  0.486-  37 0.94   5 0.99
 134  0.205  0.967  0.713-  38 0.97   6 1.00
 135  0.450  0.676  0.354-  39 0.98   7 1.00
 136  0.768  0.911  0.536-  40 0.94   8 1.02
 137  0.428  0.182  0.228-   9 0.96  41 1.01
 138  0.306  0.253  0.566-  42 1.00  10 1.00
 139  0.946  0.272  0.954-  11 0.96  43 1.00
 140  0.618  0.574  0.548-  44 0.96  12 0.96
 141  0.769  0.227  0.699-  13 1.01  45 1.02
 142  0.828  0.014  0.366-  14 0.99  46 1.01
 143  0.366  0.688  0.894-  47 0.95  15 0.99
 144  0.693  0.684  0.284-  16 0.98  48 1.00
 145  0.555  0.801  0.576-  49 0.97  17 0.99
 146  0.552  0.936  0.089-  18 0.97  50 0.98
 147  0.564  0.710  1.000-  19 0.96  51 0.98
 148  0.010  0.062  0.124-  20 0.99  52 1.02
 149  0.585  0.419  0.267-  21 0.98  53 1.00
 150  0.305  0.982  0.106-  54 0.94  22 0.97
 151  0.814  0.416  0.324-  55 0.98  23 1.01
 152  0.815  0.626  0.704-  56 0.97  24 1.02
 153  0.380  0.018  0.870-  57 0.96  25 1.00
 154  0.296  0.253  0.967-  58 0.97  26 0.98
 155  0.093  0.754  0.145-  59 0.96  27 0.97
 156  0.144  0.221  0.768-  28 0.97  60 0.98
 157  0.951  0.109  0.704-  61 0.97  29 1.00
 158  0.918  0.748  0.011-  62 1.00  30 1.02
 159  0.246  0.467  0.620-  63 0.97  31 0.99
 160  0.768  0.601  0.066-  32 0.99  64 1.00
 161  0.656  0.048  0.654- 121 0.98  71 1.00
 162  0.889  0.887  0.715-  72 1.01 122 1.01
 163  0.278  0.386  0.377- 123 0.94  65 0.97
 164  0.043  0.544  0.390- 124 0.96  66 0.99
 165  0.226  0.668  0.469-  67 0.98 125 1.02
 166  0.109  0.282  0.330- 126 0.97  68 0.99
 167  0.158  0.554  0.150- 127 0.97  69 1.01
 168  0.040  0.445  0.708- 128 0.97  70 1.02
 169  0.862  0.409  0.566-  79 0.94  97 1.01
 170  0.193  0.171  0.155-  80 0.97  98 0.98
 171  0.463  0.165  0.715-  73 0.97  99 0.99
 172  0.778  0.207  0.261- 100 0.99  74 1.05
 173  0.210  0.742  0.665-  75 0.96 101 0.99
 174  0.828  0.439  0.855- 102 0.97  76 0.99
 175  0.501  0.379  0.491- 103 0.99  77 1.02
 176  0.606  0.380  0.036-  78 1.00 104 1.02
 177  0.468  0.990  0.490- 105 0.97  87 1.00
 178  0.979  0.384  0.180- 106 0.97  88 1.03
 179  0.998  0.712  0.801- 107 1.02  81 1.03
 180  0.212  0.832  0.969- 108 0.99  82 1.04
 181  0.762  0.145  0.966-  83 0.99 109 0.99
 182  0.641  0.745  0.785-  84 0.98 110 0.99
 183  0.725  0.953  0.831- 111 0.96  85 1.02
 184  0.609  0.335  0.827- 112 0.97  86 0.99
 185  0.497  0.177  0.016- 113 0.94  95 0.98
 186  0.422  0.570  0.725- 114 0.96  96 0.96
 187  0.954  0.190  0.475-  89 0.97 115 1.04
 188  0.043  0.962  0.902- 116 0.97  90 1.05
 189  0.850  0.641  0.467-  91 0.99 117 1.02
 190  0.969  0.822  0.469-  92 0.92 118 1.02
 191  0.588  0.177  0.415- 119 0.97  93 0.98
 192  0.415  0.463  0.952- 120 0.98  94 1.01
 

IMPORTANT INFORMATION: All symmetrisations will be switched off!
NOSYMM: (Re-)initialisation of all symmetry stuff for point group C_1.


----------------------------------------------------------------------------------------

                                     Primitive cell                                     

  volume of cell :    1920.0324

  direct lattice vectors                    reciprocal lattice vectors
    12.429000000  0.000000000  0.000000000     0.080456996  0.000000000  0.000000000
     0.000000000 12.429000000  0.000000000     0.000000000  0.080456996  0.000000000
     0.000000000  0.000000000 12.429000000     0.000000000  0.000000000  0.080456996

  length of vectors
    12.429000000 12.429000000 12.429000000     0.080456996  0.080456996  0.080456996

  position of ions in fractional coordinates (direct lattice)
     0.394220180  0.585013120  0.259933900
     0.434039950  0.925725950  0.354195730
     0.803250800  0.871564040  0.039536980
     0.186082980  0.799676400  0.391567340
     0.209968720  0.007581450  0.428753770
     0.262838990  0.971798000  0.769238720
     0.448147480  0.753744820  0.334147430
     0.784540880  0.955730780  0.469443090
     0.363380220  0.223024870  0.221752060
     0.292258900  0.185552210  0.523175650
     0.005317740  0.225643880  0.936154140
     0.682979550  0.539755300  0.571076990
     0.727501010  0.267097680  0.756682600
     0.903182290  0.034429400  0.385381380
     0.301407340  0.732685480  0.906837280
     0.689893140  0.626952490  0.229572530
     0.576652530  0.788161270  0.651634830
     0.629817640  0.930643550  0.097359950
     0.559375430  0.782235940  0.026549930
     0.942921030  0.104684830  0.128515490
     0.598758910  0.388320550  0.196101720
     0.373276900  0.999740400  0.074625430
     0.834764460  0.444751750  0.396912000
     0.817730910  0.560562590  0.753681620
     0.417664240  0.065988390  0.817407750
     0.307763420  0.331028070  0.967588510
     0.113886890  0.800563260  0.203813940
     0.198893890  0.225268190  0.823304140
     0.021832190  0.139132670  0.727155170
     0.950943330  0.722842520  0.940018880
     0.259999050  0.392102230  0.598556740
     0.711401080  0.645091480  0.031876590
     0.431821520  0.500533410  0.182044620
     0.351643870  0.887683370  0.258463500
     0.776427780  0.874893080  0.170365120
     0.079422940  0.856979710  0.373975270
     0.209802760  0.034648070  0.552509790
     0.147559340  0.952998610  0.763332950
     0.401368280  0.678030590  0.416403500
     0.703541760  0.875852170  0.520087570
     0.460963670  0.214624670  0.294850100
     0.358447000  0.233588560  0.623434060
     0.895945620  0.213916420  0.979011370
     0.572149630  0.515534810  0.525956880
     0.845567800  0.214650040  0.725798110
     0.802283980  0.086489900  0.338736830
     0.370734570  0.662651010  0.822282310
     0.615952080  0.675019860  0.306722030
     0.560033940  0.728284660  0.548416700
     0.523534090  0.931902320  0.162915950
     0.496825250  0.700676210  0.959188720
     0.997447120  0.014852280  0.057637570
     0.661262070  0.433794780  0.288451490
     0.273929930  0.048245510  0.125884860
     0.853608090  0.450827220  0.264983660
     0.758884390  0.675930980  0.726321930
     0.420074410  0.953649010  0.883688380
     0.367065150  0.226547700  0.984560420
     0.130889060  0.687445670  0.155289240
     0.178678340  0.207718730  0.698784960
     0.955155360  0.123054010  0.627672150
     0.976969750  0.766192810  0.062797520
     0.245302210  0.511548270  0.554887820
     0.833595680  0.643714370  0.048146500
     0.345825790  0.361098340  0.407357280
     0.981348420  0.588064830  0.416445850
     0.228458210  0.699079150  0.541722360
     0.168704060  0.329401770  0.352349340
     0.107511510  0.491191440  0.145930770
     0.116146370  0.467443280  0.686454650
     0.713629460  0.006670670  0.615973460
     0.925260860  0.959239770  0.714744410
     0.510867010  0.128318600  0.666274360
     0.792188460  0.274925420  0.308630540
     0.148170940  0.730945430  0.710568180
     0.842686970  0.469394520  0.927629470
     0.544442070  0.328795780  0.442364110
     0.663482850  0.434719970  0.047397720
     0.823614940  0.347450180  0.588281950
     0.124587120  0.139856790  0.133686090
     0.953148820  0.646901340  0.774698090
     0.234661370  0.899649930  0.013347200
     0.760599760  0.078132940  0.922786340
     0.666066150  0.813459800  0.814399010
     0.679676420  0.980487410  0.768289920
     0.635580090  0.409132290  0.811844140
     0.490449150  0.927564050  0.535464140
     0.012861930  0.342453780  0.243808910
     0.909713020  0.252315590  0.491527970
     0.102508100  0.907506010  0.925402150
     0.824768430  0.629620910  0.541705950
     0.988339380  0.845100990  0.536314500
     0.639263300  0.162365510  0.357122170
     0.431326850  0.448320820  0.874440350
     0.505076030  0.190483020  0.093359350
     0.368456170  0.531508820  0.684150020
     0.924253300  0.412618530  0.617588740
     0.218644910  0.215416650  0.094524140
     0.506727180  0.225094720  0.743672890
     0.716375780  0.237534750  0.221344450
     0.236236750  0.816844180  0.667511280
     0.890765610  0.395201300  0.839086050
     0.488258380  0.330736310  0.552456160
     0.542705010  0.429159600  0.019721520
     0.392212280  0.996854400  0.508583450
     0.983693150  0.334380080  0.119961740
     0.955237550  0.768867090  0.761865170
     0.161800610  0.800444740  0.022014280
     0.689022150  0.176699340  0.966415230
     0.605937400  0.707089930  0.845667320
     0.785514730  0.921074930  0.795655700
     0.601326620  0.330226860  0.904559530
     0.488312220  0.101390000  0.010669940
     0.474198060  0.585740990  0.670068950
     0.011971500  0.224150870  0.424915580
     0.987120810  0.908303270  0.899033860
     0.789974980  0.664933850  0.415935560
     0.930782430  0.749207920  0.474783060
     0.558420910  0.105743190  0.420950170
     0.379213900  0.533302470  0.951276320
     0.695686270  0.116379120  0.663140060
     0.847155400  0.892735740  0.645832510
     0.305269540  0.440616710  0.331894100
     0.056262050  0.549728650  0.314950390
     0.152463760  0.636170870  0.447779310
     0.142205090  0.237293650  0.275512100
     0.234531070  0.536715740  0.155428080
     0.059366080  0.378135730  0.744784130
     0.362932810  0.521996700  0.215781950
     0.419539820  0.876419690  0.293717920
     0.768365220  0.909573720  0.097510300
     0.153656290  0.855651550  0.343950640
     0.242532130  0.051755600  0.486190330
     0.205399530  0.967396120  0.712911800
     0.449593700  0.676054700  0.353979100
     0.768036160  0.911410830  0.536091750
     0.428205460  0.181693800  0.228147020
     0.305550460  0.252786970  0.565968330
     0.946068670  0.271593790  0.954040310
     0.617562310  0.573542460  0.547999380
     0.768622000  0.227197840  0.699324880
     0.828341660  0.013994230  0.365701970
     0.365829290  0.687851840  0.894248460
     0.692922420  0.683834600  0.284476770
     0.554994190  0.801095970  0.576350360
     0.552272330  0.936407920  0.089489760
     0.563530990  0.710184570  0.999835470
     0.010362870  0.062099190  0.123951010
     0.584705390  0.418943460  0.267082660
     0.304544330  0.981702150  0.106416030
     0.814132390  0.415633250  0.323883380
     0.815425520  0.626206720  0.704427190
     0.379797100  0.018393090  0.869641930
     0.295785630  0.253145690  0.966706490
     0.093176380  0.753862920  0.144748780
     0.144353150  0.221407400  0.768077610
     0.950746390  0.109286390  0.704069340
     0.918431470  0.748281340  0.010734360
     0.245831020  0.467398020  0.619676830
     0.767903040  0.601039700  0.066085040
     0.656126190  0.048417410  0.654112980
     0.889257190  0.886658070  0.714910980
     0.278487240  0.386273190  0.377077920
     0.042743180  0.543775310  0.390450350
     0.225525040  0.667711490  0.469206590
     0.109202760  0.281515960  0.330456350
     0.158446060  0.554470050  0.150356850
     0.040205280  0.444623880  0.708387720
     0.861567370  0.409207050  0.566051930
     0.193161140  0.171484410  0.154790570
     0.462732240  0.165406630  0.714966910
     0.777683660  0.206663830  0.261469710
     0.209752480  0.741605450  0.665010510
     0.828279600  0.438786510  0.855284340
     0.500940590  0.379188740  0.490985100
     0.606123250  0.379525090  0.035554360
     0.467747490  0.989973390  0.490463160
     0.978711610  0.383762000  0.180491140
     0.997964860  0.711517590  0.801361380
     0.212420170  0.832118780  0.968916840
     0.762294220  0.144875570  0.966466500
     0.641221450  0.744587330  0.784735700
     0.724582810  0.952629860  0.831112160
     0.609121470  0.335230790  0.827306810
     0.497077100  0.176670520  0.016104540
     0.421669910  0.570418390  0.725068870
     0.954194810  0.190313370  0.474573590
     0.043074840  0.962295800  0.901670320
     0.850292510  0.641216360  0.466785760
     0.969010410  0.821746490  0.468829780
     0.588405400  0.177406520  0.415287090
     0.414968180  0.463008340  0.952306510

  ion indices of the primitive-cell ions
   primitive index   ion index
                 1           1
                 2           2
                 3           3
                 4           4
                 5           5
                 6           6
                 7           7
                 8           8
                 9           9
                10          10
                11          11
                12          12
                13          13
                14          14
                15          15
                16          16
                17          17
                18          18
                19          19
                20          20
                21          21
                22          22
                23          23
                24          24
                25          25
                26          26
                27          27
                28          28
                29          29
                30          30
                31          31
                32          32
                33          33
                34          34
                35          35
                36          36
                37          37
                38          38
                39          39
                40          40
                41          41
                42          42
                43          43
                44          44
                45          45
                46          46
                47          47
                48          48
                49          49
                50          50
                51          51
                52          52
                53          53
                54          54
                55          55
                56          56
                57          57
                58          58
                59          59
                60          60
                61          61
                62          62
                63          63
                64          64
                65          65
                66          66
                67          67
                68          68
                69          69
                70          70
                71          71
                72          72
                73          73
                74          74
                75          75
                76          76
                77          77
                78          78
                79          79
                80          80
                81          81
                82          82
                83          83
                84          84
                85          85
                86          86
                87          87
                88          88
                89          89
                90          90
                91          91
                92          92
                93          93
                94          94
                95          95
                96          96
                97          97
                98          98
                99          99
               100         100
               101         101
               102         102
               103         103
               104         104
               105         105
               106         106
               107         107
               108         108
               109         109
               110         110
               111         111
               112         112
               113         113
               114         114
               115         115
               116         116
               117         117
               118         118
               119         119
               120         120
               121         121
               122         122
               123         123
               124         124
               125         125
               126         126
               127         127
               128         128
               129         129
               130         130
               131         131
               132         132
               133         133
               134         134
               135         135
               136         136
               137         137
               138         138
               139         139
               140         140
               141         141
               142         142
               143         143
               144         144
               145         145
               146         146
               147         147
               148         148
               149         149
               150         150
               151         151
               152         152
               153         153
               154         154
               155         155
               156         156
               157         157
               158         158
               159         159
               160         160
               161         161
               162         162
               163         163
               164         164
               165         165
               166         166
               167         167
               168         168
               169         169
               170         170
               171         171
               172         172
               173         173
               174         174
               175         175
               176         176
               177         177
               178         178
               179         179
               180         180
               181         181
               182         182
               183         183
               184         184
               185         185
               186         186
               187         187
               188         188
               189         189
               190         190
               191         191
               192         192

----------------------------------------------------------------------------------------

 
 
 KPOINTS: Automatic mesh                          

Automatic generation of k-mesh.
 WARNING: RD_KPOINTS: internal override: KBLOWUP is changed to .FALSE.
      ... skipping the blow-up phase ...

 Grid dimensions derived from generating k-lattice:
 generate k-points for:    1    1    2

 Generating k-lattice:

  Cartesian coordinates                     Fractional coordinates (reciprocal lattice)
     0.040228498  0.040228498  0.040228498     0.500000000  0.500000000  0.500000000
     0.040228498 -0.040228498  0.040228498     0.500000000 -0.500000000  0.500000000
     0.040228498  0.040228498 -0.040228498     0.500000000  0.500000000 -0.500000000

  Length of vectors
     0.069677802  0.069677802  0.069677802

  Shift w.r.t. Gamma in fractional coordinates (k-lattice)
     0.000000000  0.000000000  0.000000000

 
 Subroutine IBZKPT returns following result:
 ===========================================
 
 Found      2 irreducible k-points:
 
 Following reciprocal coordinates:
            Coordinates               Weight
  0.000000  0.000000  0.000000      1.000000
  0.500000  0.500000  0.500000      1.000000
 
 Following cartesian coordinates:
            Coordinates               Weight
  0.000000  0.000000  0.000000      1.000000
  0.040228  0.040228  0.040228      1.000000
 
 WARNING: full set of k-points will be restricted to regular points only.

 
 Subroutine IBZKPT_HF returns following result:
 ==============================================
 
 Found      2 k-points in 1st BZ
 the following      2 k-points will be used (e.g. in the exchange kernel)
 Following reciprocal coordinates:   # in IRBZ
  0.000000  0.000000  0.000000    0.50000000   1 t-inv F
  0.500000  0.500000  0.500000    0.50000000   2 t-inv F


--------------------------------------------------------------------------------------------------------




 Dimension of arrays:
   k-points           NKPTS =      2   k-points in BZ     NKDIM =      2   number of bands    NBANDS=    360
   number of dos      NEDOS =    301   number of ions     NIONS =    192
   non local maximal  LDIM  =      4   non local SUM 2l+1 LMDIM =      8
   total plane-waves  NPLWV = 729000
   max r-space proj   IRMAX =   1289   max aug-charges    IRDMAX=   1484
   dimension x,y,z NGX =    90 NGY =   90 NGZ =   90
   dimension x,y,z NGXF=   180 NGYF=  180 NGZF=  180
   support grid    NGXF=   180 NGYF=  180 NGZF=  180
   ions per type =             128  64
   NGX,Y,Z   is equivalent  to a cutoff of  12.04, 12.04, 12.04 a.u.
   NGXF,Y,Z  is equivalent  to a cutoff of  24.08, 24.08, 24.08 a.u.

 SYSTEM =  H2O_liquid                              
 POSCAR =  H2O_liquid                              

 Startparameter for this run:
   NWRITE =      2    write-flag & timer
   PREC   = normal    normal or accurate (medium, high low for compatibility)
   ISTART =      0    job   : 0-new  1-cont  2-samecut
   ICHARG =      2    charge: 1-file 2-atom 10-const
   ISPIN  =      1    spin polarized calculation?
   LNONCOLLINEAR =      F non collinear calculations
   LSORBIT =      F    spin-orbit coupling
   INIWAV =      1    electr: 0-lowe 1-rand  2-diag
   LASPH  =      F    aspherical Exc in radial PAW
 Electronic Relaxation 1
   ENCUT  =  800.0 eV  58.80 Ry    7.67 a.u.  28.66 28.66 28.66*2*pi/ulx,y,z
   ENINI  =  800.0     initial cutoff
   ENAUG  = 1483.1 eV  augmentation charge cutoff
   NELM   =    100;   NELMIN=  4; NELMDL=  0     # of ELM steps 
   EDIFF  = 0.1E-05   stopping-criterion for ELM
   LREAL  =      T    real-space projection
   NLSPLINE    = F    spline interpolate recip. space projectors
   LCOMPAT=      F    compatible to vasp.4.4
   GGA_COMPAT  = T    GGA compatible to vasp.4.4-vasp.4.6
   LMAXPAW     = -100 max onsite density
   LMAXMIX     =    2 max onsite mixed and CHGCAR
   VOSKOWN=      0    Vosko Wilk Nusair interpolation
   ROPT   =   -0.00050  -0.00050
 Ionic relaxation
   EDIFFG = 0.1E-04   stopping-criterion for IOM
   NSW    =      0    number of steps for IOM
   NBLOCK =      1;   KBLOCK =      1    inner block; outer block 
   IBRION =     -1    ionic relax: 0-MD 1-quasi-New 2-CG
   NFREE  =      0    steps in history (QN), initial steepest desc. (CG)
   ISIF   =      2    stress and relaxation
   IWAVPR =     10    prediction:  0-non 1-charg 2-wave 3-comb
   ISYM   =      0    0-nonsym 1-usesym 2-fastsym
   LCORR  =      T    Harris-Foulkes like correction to forces

   POTIM  = 0.5000    time-step for ionic-motion
   TEIN   =    0.0    initial temperature
   TEBEG  =    0.0;   TEEND  =   0.0 temperature during run
   SMASS  =  -3.00    Nose mass-parameter (am)
   estimated Nose-frequenzy (Omega)   =  0.10E-29 period in steps = 0.13E+47 mass=  -0.353E-26a.u.
   SCALEE = 1.0000    scale energy and forces
   NPACO  =    256;   APACO  = 10.0  distance and # of slots for P.C.
   PSTRESS=    0.0 pullay stress

  Mass of Ions in am
   POMASS =   1.00 16.00
  Ionic Valenz
   ZVAL   =   1.00  6.00
  Atomic Wigner-Seitz radii
   RWIGS  =  -1.00 -1.00
  virtual crystal weights 
   VCA    =   1.00  1.00
   NELECT =     512.0000    total number of electrons
   NUPDOWN=      -1.0000    fix difference up-down

 DOS related values:
   EMIN   =  10.00;   EMAX   =-10.00  energy-range for DOS
   EFERMI =   0.00;   METHOD = LEGACY      
   ISMEAR =     0;   SIGMA  =   0.05  broadening in eV -4-tet -1-fermi 0-gaus

 Electronic relaxation 2 (details)
   IALGO  =     38    algorithm
   LDIAG  =      T    sub-space diagonalisation (order eigenvalues)
   LSUBROT=      F    optimize rotation matrix (better conditioning)
   TURBO    =      0    0=normal 1=particle mesh
   IRESTART =      0    0=no restart 2=restart with 2 vectors
   NREBOOT  =      0    no. of reboots
   NMIN     =      0    reboot dimension
   EREF     =   0.00    reference energy to select bands
   IMIX   =      4    mixing-type and parameters
     AMIX     =   0.80;   BMIX     =  0.20
     AMIX_MAG =   3.20;   BMIX_MAG =  0.20
     AMIN     =   0.10
     WC   =   100.;   INIMIX=   1;  MIXPRE=   1;  MAXMIX= -45

 Intra band minimization:
   WEIMIN = 0.0000     energy-eigenvalue tresh-hold
   EBREAK =  0.69E-09  absolut break condition
   DEPER  =   0.30     relativ break condition  

   TIME   =   0.40     timestep for ELM

  volume/ion in A,a.u.               =      10.00        67.48
  Fermi-wavevector in a.u.,A,eV,Ry     =   1.053728  1.991258 15.107137  1.110343
  Thomas-Fermi vector in A             =   2.188861
 
 Write flags
   LWAVE        =      F    write WAVECAR
   LDOWNSAMPLE  =      F    k-point downsampling of WAVECAR
   LCHARG       =      F    write CHGCAR
   LVTOT        =      F    write LOCPOT, total local potential
   LVHAR        =      F    write LOCPOT, Hartree potential only
   LELF         =      F    write electronic localiz. function (ELF)
   LORBIT       =      0    0 simple, 1 ext, 2 COOP (PROOUT), +10 PAW based schemes


 Dipole corrections
   LMONO  =      F    monopole corrections only (constant potential shift)
   LDIPOL =      F    correct potential (dipole corrections)
   IDIPOL =      0    1-x, 2-y, 3-z, 4-all directions 
   EPSILON=  1.0000000 bulk dielectric constant

 Exchange correlation treatment:
   GGA     =    RP    GGA type
   LEXCH   =     9    internal setting for exchange type
   LIBXC   =     F    Libxc                    
   VOSKOWN =     0    Vosko Wilk Nusair interpolation
   LHFCALC =     F    Hartree Fock is set to
   LHFONE  =     F    Hartree Fock one center treatment
   AEXX    =    0.0000 exact exchange contribution

 Linear response parameters
   LEPSILON=     T    determine dielectric tensor
   LRPA    =     F    only Hartree local field effects (RPA)
   LNABLA  =     F    use nabla operator in PAW spheres
   LVEL    =     F    velocity operator in full k-point grid
   CSHIFT  =0.1000    complex shift for real part using Kramers Kronig
   OMEGAMAX=  -1.0    maximum frequency
   DEG_THRESHOLD= 0.2000000E-02 threshold for treating states as degnerate
   RTIME   =   -0.100 relaxation time in fs
  (WPLASMAI=    0.000 imaginary part of plasma frequency in eV, 0.658/RTIME)
   DFIELD  = 0.0000000 0.0000000 0.0000000 field for delta impulse in time
 
  Optional k-point grid parameters
   LKPOINTS_OPT  =     F    use optional k-point grid
   KPOINTS_OPT_MODE=     1    mode for optional k-point grid
 
 Orbital magnetization related:
   ORBITALMAG=     F  switch on orbital magnetization
   LCHIMAG   =     F  perturbation theory with respect to B field
   DQ        =  0.001000  dq finite difference perturbation B field
   LLRAUG    =     F  two centre corrections for induced B field



--------------------------------------------------------------------------------------------------------


 Static calculation
 charge density and potential will be updated during run
 non-spin polarized calculation
 Variant of blocked Davidson
 Davidson routine will perform the subspace rotation
 perform sub-space diagonalisation
    after iterative eigenvector-optimisation
 modified Broyden-mixing scheme, WC =      100.0
 initial mixing is a Kerker type mixing with AMIX =  0.8000 and BMIX =      0.2000
 Hartree-type preconditioning will be used
 using additional bands           104
 real space projection scheme for non local part
 use partial core corrections
 calculate Harris-corrections to forces 
   (improved forces if not selfconsistent)
 use gradient corrections 
 use of overlap-Matrix (Vanderbilt PP)
 Gauss-broadening in eV      SIGMA  =   0.05


--------------------------------------------------------------------------------------------------------


  energy-cutoff  :      800.00
  volume of cell :     1920.03
      direct lattice vectors                 reciprocal lattice vectors
    12.429000000  0.000000000  0.000000000     0.080456996  0.000000000  0.000000000
     0.000000000 12.429000000  0.000000000     0.000000000  0.080456996  0.000000000
     0.000000000  0.000000000 12.429000000     0.000000000  0.000000000  0.080456996

  length of vectors
    12.429000000 12.429000000 12.429000000     0.080456996  0.080456996  0.080456996


 
 k-points in units of 2pi/SCALE and weight: Automatic mesh                          
   0.00000000  0.00000000  0.00000000       0.500
   0.04022850  0.04022850  0.04022850       0.500
 
 k-points in reciprocal lattice and weights: Automatic mesh                          
   0.00000000  0.00000000  0.00000000       0.500
   0.50000000  0.50000000  0.50000000       0.500
 
 position of ions in fractional coordinates (direct lattice) 
   0.39422018  0.58501312  0.25993390
   0.43403995  0.92572595  0.35419573
   0.80325080  0.87156404  0.03953698
   0.18608298  0.79967640  0.39156734
   0.20996872  0.00758145  0.42875377
   0.26283899  0.97179800  0.76923872
   0.44814748  0.75374482  0.33414743
   0.78454088  0.95573078  0.46944309
   0.36338022  0.22302487  0.22175206
   0.29225890  0.18555221  0.52317565
   0.00531774  0.22564388  0.93615414
   0.68297955  0.53975530  0.57107699
   0.72750101  0.26709768  0.75668260
   0.90318229  0.03442940  0.38538138
   0.30140734  0.73268548  0.90683728
   0.68989314  0.62695249  0.22957253
   0.57665253  0.78816127  0.65163483
   0.62981764  0.93064355  0.09735995
   0.55937543  0.78223594  0.02654993
   0.94292103  0.10468483  0.12851549
   0.59875891  0.38832055  0.19610172
   0.37327690  0.99974040  0.07462543
   0.83476446  0.44475175  0.39691200
   0.81773091  0.56056259  0.75368162
   0.41766424  0.06598839  0.81740775
   0.30776342  0.33102807  0.96758851
   0.11388689  0.80056326  0.20381394
   0.19889389  0.22526819  0.82330414
   0.02183219  0.13913267  0.72715517
   0.95094333  0.72284252  0.94001888
   0.25999905  0.39210223  0.59855674
   0.71140108  0.64509148  0.03187659
   0.43182152  0.50053341  0.18204462
   0.35164387  0.88768337  0.25846350
   0.77642778  0.87489308  0.17036512
   0.07942294  0.85697971  0.37397527
   0.20980276  0.03464807  0.55250979
   0.14755934  0.95299861  0.76333295
   0.40136828  0.67803059  0.41640350
   0.70354176  0.87585217  0.52008757
   0.46096367  0.21462467  0.29485010
   0.35844700  0.23358856  0.62343406
   0.89594562  0.21391642  0.97901137
   0.57214963  0.51553481  0.52595688
   0.84556780  0.21465004  0.72579811
   0.80228398  0.08648990  0.33873683
   0.37073457  0.66265101  0.82228231
   0.61595208  0.67501986  0.30672203
   0.56003394  0.72828466  0.54841670
   0.52353409  0.93190232  0.16291595
   0.49682525  0.70067621  0.95918872
   0.99744712  0.01485228  0.05763757
   0.66126207  0.43379478  0.28845149
   0.27392993  0.04824551  0.12588486
   0.85360809  0.45082722  0.26498366
   0.75888439  0.67593098  0.72632193
   0.42007441  0.95364901  0.88368838
   0.36706515  0.22654770  0.98456042
   0.13088906  0.68744567  0.15528924
   0.17867834  0.20771873  0.69878496
   0.95515536  0.12305401  0.62767215
   0.97696975  0.76619281  0.06279752
   0.24530221  0.51154827  0.55488782
   0.83359568  0.64371437  0.04814650
   0.34582579  0.36109834  0.40735728
   0.98134842  0.58806483  0.41644585
   0.22845821  0.69907915  0.54172236
   0.16870406  0.32940177  0.35234934
   0.10751151  0.49119144  0.14593077
   0.11614637  0.46744328  0.68645465
   0.71362946  0.00667067  0.61597346
   0.92526086  0.95923977  0.71474441
   0.51086701  0.12831860  0.66627436
   0.79218846  0.27492542  0.30863054
   0.14817094  0.73094543  0.71056818
   0.84268697  0.46939452  0.92762947
   0.54444207  0.32879578  0.44236411
   0.66348285  0.43471997  0.04739772
   0.82361494  0.34745018  0.58828195
   0.12458712  0.13985679  0.13368609
   0.95314882  0.64690134  0.77469809
   0.23466137  0.89964993  0.01334720
   0.76059976  0.07813294  0.92278634
   0.66606615  0.81345980  0.81439901
   0.67967642  0.98048741  0.76828992
   0.63558009  0.40913229  0.81184414
   0.49044915  0.92756405  0.53546414
   0.01286193  0.34245378  0.24380891
   0.90971302  0.25231559  0.49152797
   0.10250810  0.90750601  0.92540215
   0.82476843  0.62962091  0.54170595
   0.98833938  0.84510099  0.53631450
   0.63926330  0.16236551  0.35712217
   0.43132685  0.44832082  0.87444035
   0.50507603  0.19048302  0.09335935
   0.36845617  0.53150882  0.68415002
   0.92425330  0.41261853  0.61758874
   0.21864491  0.21541665  0.09452414
   0.50672718  0.22509472  0.74367289
   0.71637578  0.23753475  0.22134445
   0.23623675  0.81684418  0.66751128
   0.89076561  0.39520130  0.83908605
   0.48825838  0.33073631  0.55245616
   0.54270501  0.42915960  0.01972152
   0.39221228  0.99685440  0.50858345
   0.98369315  0.33438008  0.11996174
   0.95523755  0.76886709  0.76186517
   0.16180061  0.80044474  0.02201428
   0.68902215  0.17669934  0.96641523
   0.60593740  0.70708993  0.84566732
   0.78551473  0.92107493  0.79565570
   0.60132662  0.33022686  0.90455953
   0.48831222  0.10139000  0.01066994
   0.47419806  0.58574099  0.67006895
   0.01197150  0.22415087  0.42491558
   0.98712081  0.90830327  0.89903386
   0.78997498  0.66493385  0.41593556
   0.93078243  0.74920792  0.47478306
   0.55842091  0.10574319  0.42095017
   0.37921390  0.53330247  0.95127632
   0.69568627  0.11637912  0.66314006
   0.84715540  0.89273574  0.64583251
   0.30526954  0.44061671  0.33189410
   0.05626205  0.54972865  0.31495039
   0.15246376  0.63617087  0.44777931
   0.14220509  0.23729365  0.27551210
   0.23453107  0.53671574  0.15542808
   0.05936608  0.37813573  0.74478413
   0.36293281  0.52199670  0.21578195
   0.41953982  0.87641969  0.29371792
   0.76836522  0.90957372  0.09751030
   0.15365629  0.85565155  0.34395064
   0.24253213  0.05175560  0.48619033
   0.20539953  0.96739612  0.71291180
   0.44959370  0.67605470  0.35397910
   0.76803616  0.91141083  0.53609175
   0.42820546  0.18169380  0.22814702
   0.30555046  0.25278697  0.56596833
   0.94606867  0.27159379  0.95404031
   0.61756231  0.57354246  0.54799938
   0.76862200  0.22719784  0.69932488
   0.82834166  0.01399423  0.36570197
   0.36582929  0.68785184  0.89424846
   0.69292242  0.68383460  0.28447677
   0.55499419  0.80109597  0.57635036
   0.55227233  0.93640792  0.08948976
   0.56353099  0.71018457  0.99983547
   0.01036287  0.06209919  0.12395101
   0.58470539  0.41894346  0.26708266
   0.30454433  0.98170215  0.10641603
   0.81413239  0.41563325  0.32388338
   0.81542552  0.62620672  0.70442719
   0.37979710  0.01839309  0.86964193
   0.29578563  0.25314569  0.96670649
   0.09317638  0.75386292  0.14474878
   0.14435315  0.22140740  0.76807761
   0.95074639  0.10928639  0.70406934
   0.91843147  0.74828134  0.01073436
   0.24583102  0.46739802  0.61967683
   0.76790304  0.60103970  0.06608504
   0.65612619  0.04841741  0.65411298
   0.88925719  0.88665807  0.71491098
   0.27848724  0.38627319  0.37707792
   0.04274318  0.54377531  0.39045035
   0.22552504  0.66771149  0.46920659
   0.10920276  0.28151596  0.33045635
   0.15844606  0.55447005  0.15035685
   0.04020528  0.44462388  0.70838772
   0.86156737  0.40920705  0.56605193
   0.19316114  0.17148441  0.15479057
   0.46273224  0.16540663  0.71496691
   0.77768366  0.20666383  0.26146971
   0.20975248  0.74160545  0.66501051
   0.82827960  0.43878651  0.85528434
   0.50094059  0.37918874  0.49098510
   0.60612325  0.37952509  0.03555436
   0.46774749  0.98997339  0.49046316
   0.97871161  0.38376200  0.18049114
   0.99796486  0.71151759  0.80136138
   0.21242017  0.83211878  0.96891684
   0.76229422  0.14487557  0.96646650
   0.64122145  0.74458733  0.78473570
   0.72458281  0.95262986  0.83111216
   0.60912147  0.33523079  0.82730681
   0.49707710  0.17667052  0.01610454
   0.42166991  0.57041839  0.72506887
   0.95419481  0.19031337  0.47457359
   0.04307484  0.96229580  0.90167032
   0.85029251  0.64121636  0.46678576
   0.96901041  0.82174649  0.46882978
   0.58840540  0.17740652  0.41528709
   0.41496818  0.46300834  0.95230651
 
 position of ions in cartesian coordinates  (Angst):
   4.89976262  7.27112807  3.23071844
   5.39468254 11.50584783  4.40229873
   9.98360419 10.83266945  0.49140512
   2.31282536  9.93917798  4.86679047
   2.60970122  0.09422984  5.32898061
   3.26682581 12.07847734  9.56086805
   5.57002503  9.36829437  4.15311841
   9.75105860 11.87877786  5.83470817
   4.51645275  2.77197611  2.75615635
   3.63248587  2.30622842  6.50255015
   0.06609419  2.80452778 11.63545981
   8.48875283  6.70861862  7.09791591
   9.04211005  3.31975706  9.40480804
  11.22565268  0.42792301  4.78990517
   3.74619183  9.10654783 11.27108055
   8.57468184  7.79239250  2.85335698
   7.16721430  9.79605642  8.09916930
   7.82800345 11.56696868  1.21008682
   6.95247722  9.72241050  0.32998908
  11.71956548  1.30112775  1.59731903
   7.44197449  4.82643612  2.43734828
   4.63945859 12.42577343  0.92751947
  10.37528747  5.52781950  4.93321925
  10.16357748  6.96723243  9.36750885
   5.19114884  0.82016970 10.15956092
   3.82519155  4.11434788 12.02615759
   1.41550016  9.95020076  2.53320346
   2.47205216  2.79985833 10.23284716
   0.27135229  1.72927996  9.03781161
  11.81927465  8.98420968 11.68349466
   3.23152819  4.87343862  7.43946172
   8.84200402  8.01784200  0.39619414
   5.36710967  6.22112975  2.26263258
   4.37058166 11.03301661  3.21244284
   9.65022088 10.87404609  2.11746808
   0.98714772 10.65140082  4.64813863
   2.60763850  0.43064086  6.86714418
   1.83401504 11.84481972  9.48746524
   4.98860635  8.42724220  5.17547910
   8.74432054 10.88596662  6.46416841
   5.72931745  2.66757002  3.66469189
   4.45513776  2.90327221  7.74866193
  11.13570811  2.65876718 12.16813232
   7.11124775  6.40758215  6.53711806
  10.50956219  2.66788535  9.02094471
   9.97158759  1.07498297  4.21016006
   4.60785997  8.23608940 10.22014683
   7.65566840  8.38982184  3.81224811
   6.96066184  9.05185004  6.81627116
   6.50700520 11.58261394  2.02488234
   6.17504103  8.70870461 11.92175660
  12.39727025  0.18459899  0.71637736
   8.21882627  5.39163532  3.58516357
   3.40467510  0.59964344  1.56462292
  10.60949495  5.60333152  3.29348191
   9.43217408  8.40114615  9.02745527
   5.22110484 11.85290355 10.98336288
   4.56225275  2.81576136 12.23710146
   1.62682013  8.54426223  1.93008996
   2.22079309  2.58173610  8.68519827
  11.87162597  1.52943829  7.80133715
  12.14275702  9.52301044  0.78051038
   3.04886117  6.35803345  6.89670071
  10.36076071  8.00072590  0.59841285
   4.29826874  4.48809127  5.06304363
  12.19717951  7.30905777  5.17600547
   2.83950709  8.68885476  6.73306721
   2.09682276  4.09413460  4.37934995
   1.33626056  6.10501841  1.81377354
   1.44358323  5.80985253  8.53194484
   8.86970056  0.08290976  7.65593413
  11.50006723 11.92239110  8.88355827
   6.34956607  1.59487188  8.28112402
   9.84611037  3.41704805  3.83596898
   1.84161661  9.08492075  8.83165191
  10.47375635  5.83410449 11.52950668
   6.76687049  4.08660275  5.49814352
   8.24642834  5.40313451  0.58910626
  10.23671009  4.31845829  7.31175636
   1.54849331  1.73828004  1.66158441
  11.84668668  8.04033675  9.62872256
   2.91660617 11.18174898  0.16589235
   9.45349442  0.97111431 11.46931142
   8.27853618 10.11049185 10.12216530
   8.44769822 12.18647802  9.54907542
   7.89962494  5.08510523 10.09041082
   6.09579249 11.52869358  6.65528380
   0.15986093  4.25635803  3.03030094
  11.30682313  3.13603047  6.10920114
   1.27407317 11.27939220 11.50182332
  10.25104682  7.82555829  6.73286325
  12.28407015 10.50376020  6.66585292
   7.94540356  2.01804092  4.43867145
   5.36096142  5.57217947 10.86841911
   6.27758998  2.36751346  1.16036336
   4.57954174  6.60612312  8.50330060
  11.48754427  5.12843571  7.67601045
   2.71753759  2.67741354  1.17484054
   6.29811212  2.79770227  9.24311035
   8.90383457  2.95231941  2.75109017
   2.93618657 10.15255631  8.29649770
  11.07132577  4.91195696 10.42900052
   6.06856341  4.11072160  6.86647761
   6.74528057  5.33402467  0.24511877
   4.87480643 12.38990334  6.32118370
  12.22632216  4.15601001  1.49100447
  11.87264751  9.55624906  9.46922220
   2.01101978  9.94872767  0.27361549
   8.56385630  2.19619610 12.01157489
   7.53119594  8.78842074 10.51079912
   9.76316258 11.44804030  9.88920470
   7.47388856  4.10438964 11.24277040
   6.06923258  1.26017631  0.13261668
   5.89380769  7.28017476  8.32828698
   0.14879377  2.78597116  5.28127574
  12.26892455 11.28930134 11.17409185
   9.81859903  8.26446282  5.16966308
  11.56869482  9.31190524  5.90107865
   6.94061349  1.31428211  5.23198966
   4.71324956  6.62841640 11.82341338
   8.64668465  1.44647608  8.24216781
  10.52929447 11.09581251  8.02705227
   3.79419511  5.47642509  4.12511177
   0.69928102  6.83257739  3.91451840
   1.89497207  7.90696774  5.56544904
   1.76746706  2.94932278  3.42433989
   2.91498667  6.67083993  1.93181561
   0.73786101  4.69984899  9.25692195
   4.51089190  6.48789698  2.68195386
   5.21446042 10.89302033  3.65062003
   9.55001132 11.30509177  1.21195552
   1.90979403 10.63489311  4.27496250
   3.01443184  0.64327035  6.04285961
   2.55291076 12.02376638  8.86078076
   5.58800010  8.40268387  4.39960623
   9.54592143 11.32792521  6.66308436
   5.32216566  2.25827224  2.83563931
   3.79768667  3.14188925  7.03442037
  11.75868750  3.37563922 11.85776701
   7.67568195  7.12855924  6.81108429
   9.55320284  2.82384195  8.69190893
  10.29545849  0.17393428  4.54530979
   4.54689225  8.54931052 11.11461411
   8.61233276  8.49938024  3.53576177
   6.89802279  9.95682181  7.16345862
   6.86419279 11.63861404  1.11226823
   7.00412667  8.82688402 12.42695506
   0.12880011  0.77183083  1.54058710
   7.26730329  5.20704826  3.31957038
   3.78518148 12.20157602  1.32264484
  10.11885148  5.16590566  4.02554653
  10.13492379  7.78312332  8.75532554
   4.72049816  0.22860772 10.80877955
   3.67631960  3.14634778 12.01519496
   1.15808923  9.36976223  1.79908259
   1.79416530  2.75187257  9.54643661
  11.81682688  1.35832054  8.75087783
  11.41518474  9.30038877  0.13341736
   3.05543375  5.80928999  7.70196332
   9.54426688  7.47032243  0.82137096
   8.15499242  0.60177999  8.12997023
  11.05257761 11.02027315  8.88562857
   3.46131791  4.80098948  4.68670147
   0.53125498  6.75858333  4.85290740
   2.80305072  8.29898611  5.83176871
   1.35728110  3.49896187  4.10724197
   1.96932608  6.89150825  1.86878529
   0.49971143  5.52623020  8.80455097
  10.70842084  5.08603442  7.03545944
   2.40079981  2.13137973  1.92389199
   5.75129901  2.05583900  8.88632372
   9.66583021  2.56862474  3.24980703
   2.60701357  9.21741414  8.26541563
  10.29468715  5.45367753 10.63032906
   6.22619059  4.71293685  6.10245381
   7.53350587  4.71711734  0.44190514
   5.81363355 12.30437926  6.09596662
  12.16440660  4.76977790  2.24332438
  12.40370524  8.84345213  9.96012059
   2.64017029 10.34240432 12.04266740
   9.47455486  1.80065846 12.01221213
   7.96974140  9.25447592  9.75348002
   9.00583975 11.84023653 10.32989304
   7.57077075  4.16658349 10.28259634
   6.17817128  2.19583789  0.20016333
   5.24093531  7.08973017  9.01188099
  11.85968729  2.36540488  5.89847515
   0.53537719 11.96037450 11.20686041
  10.56828561  7.96967814  5.80168021
  12.04383039 10.21348712  5.82708534
   7.31329072  2.20498564  5.16160324
   5.15763951  5.75473066 11.83621761
 


--------------------------------------------------------------------------------------------------------


 k-point   1 :   0.0000 0.0000 0.0000  plane waves:   98745
 k-point   2 :   0.5000 0.5000 0.5000  plane waves:   98728

 maximum and minimum number of plane-waves per node :     12393    12305

 maximum number of plane-waves:     98745
 maximum index in each direction: 
   IXMAX=   28   IYMAX=   28   IZMAX=   28
   IXMIN=  -29   IYMIN=  -29   IZMIN=  -29


 real space projection operators:
  total allocation   :      10038.81 KBytes
  max/ min on nodes  :       1358.60       1207.48


 parallel 3D FFT for wavefunctions:
    minimum data exchange during FFTs selected (reduces bandwidth)
 parallel 3D FFT for charge:
    minimum data exchange during FFTs selected (reduces bandwidth)


 total amount of memory used by VASP MPI-rank0    68041. kBytes
=======================================================================

   base      :      30000. kBytes
   nonlr-proj:       4318. kBytes
   fftplans  :       6254. kBytes
   grid      :       9391. kBytes
   one-center:         73. kBytes
   wavefun   :      18005. kBytes
 
     INWAV:  cpu time      0.0000: real time      0.0000
 Broyden mixing: mesh for mixing (old mesh)
   NGX = 57   NGY = 57   NGZ = 57
  (NGX  =180   NGY  =180   NGZ  =180)
  gives a total of 185193 points

 initial charge density was supplied:
 charge density of overlapping atoms calculated
 number of electron     512.0000000 magnetization 
 keeping initial charge density in first step


--------------------------------------------------------------------------------------------------------


 Maximum index for non-local projection operator           268
 Maximum index for augmentation-charges           140 (set IRDMAX)


--------------------------------------------------------------------------------------------------------


 First call to EWALD:  gamma=   0.143
 Maximum number of real-space cells 3x 3x 3
 Maximum number of reciprocal cells 3x 3x 3

    FEWALD:  cpu time      0.0128: real time      0.0131


--------------------------------------- Iteration      1(   1)  ---------------------------------------


    POTLOK:  cpu time      0.0718: real time      0.0736
    SETDIJ:  cpu time      0.0047: real time      0.0050
     EDDAV:  cpu time      4.4090: real time      4.4498
       DOS:  cpu time      0.0006: real time      0.0008
    --------------------------------------------
      LOOP:  cpu time      4.4862: real time      4.5292

 eigenvalue-minimisations  :  1440
 total energy-change (2. order) : 0.5052556E+04  (-0.2978360E+05)
 number of electron     512.0000000 magnetization 
 augmentation part      512.0000000 magnetization 

 Free energy of the ion-electron system (eV)
  ---------------------------------------------------
  alpha Z        PSCENC =       346.92223762
  Ewald energy   TEWEN  =    -12872.92311816
  -Hartree energ DENC   =    -12756.44558735
  -exchange      EXHF   =         0.00000000
  -V(xc)+E(xc)   XCENC  =      1956.20510356
  PAW double counting   =     22356.74727657   -22390.29116979
  entropy T*S    EENTRO =        -0.03876900
  eigenvalues    EBANDS =      -854.11259470
  atomic energy  EATOM  =     29266.49212746
  Solvation  Ediel_sol  =         0.00000000
  ---------------------------------------------------
  free energy    TOTEN  =      5052.55550620 eV

  energy without entropy =     5052.59427521  energy(sigma->0) =     5052.57489070


--------------------------------------------------------------------------------------------------------




--------------------------------------- Iteration      1(   2)  ---------------------------------------


     EDDAV:  cpu time      5.5338: real time      5.5809
       DOS:  cpu time      0.0003: real time      0.0003
    --------------------------------------------
      LOOP:  cpu time      5.5341: real time      5.5813

 eigenvalue-minimisations  :  1912
 total energy-change (2. order) :-0.4910587E+04  (-0.4683769E+04)
 number of electron     512.0000000 magnetization 
 augmentation part      512.0000000 magnetization 

 Free energy of the ion-electron system (eV)
  ---------------------------------------------------
  alpha Z        PSCENC =       346.92223762
  Ewald energy   TEWEN  =    -12872.92311816
  -Hartree energ DENC   =    -12756.44558735
  -exchange      EXHF   =         0.00000000
  -V(xc)+E(xc)   XCENC  =      1956.20510356
  PAW double counting   =     22356.74727657   -22390.29116979
  entropy T*S    EENTRO =        -0.00000000
  eigenvalues    EBANDS =     -5764.73805361
  atomic energy  EATOM  =     29266.49212746
  Solvation  Ediel_sol  =         0.00000000
  ---------------------------------------------------
  free energy    TOTEN  =       141.96881629 eV

  energy without entropy =      141.96881629  energy(sigma->0) =      141.96881629


--------------------------------------------------------------------------------------------------------




--------------------------------------- Iteration      1(   3)  ---------------------------------------


     EDDAV:  cpu time      5.1085: real time      5.1498
       DOS:  cpu time      0.0006: real time      0.0006
    --------------------------------------------
      LOOP:  cpu time      5.1091: real time      5.1504

 eigenvalue-minimisations  :  1720
 total energy-change (2. order) :-0.1103971E+04  (-0.1089009E+04)
 number of electron     512.0000000 magnetization 
 augmentation part      512.0000000 magnetization 

 Free energy of the ion-electron system (eV)
  ---------------------------------------------------
  alpha Z        PSCENC =       346.92223762
  Ewald energy   TEWEN  =    -12872.92311816
  -Hartree energ DENC   =    -12756.44558735
  -exchange      EXHF   =         0.00000000
  -V(xc)+E(xc)   XCENC  =      1956.20510356
  PAW double counting   =     22356.74727657   -22390.29116979
  entropy T*S    EENTRO =        -0.00000000
  eigenvalues    EBANDS =     -6868.70897853
  atomic energy  EATOM  =     29266.49212746
  Solvation  Ediel_sol  =         0.00000000
  ---------------------------------------------------
  free energy    TOTEN  =      -962.00210863 eV

  energy without entropy =     -962.00210863  energy(sigma->0) =     -962.00210863


--------------------------------------------------------------------------------------------------------




--------------------------------------- Iteration      1(   4)  ---------------------------------------


     EDDAV:  cpu time      5.0589: real time      5.0992
       DOS:  cpu time      0.0006: real time      0.0006
    --------------------------------------------
      LOOP:  cpu time      5.0595: real time      5.0998

 eigenvalue-minimisations  :  1720
 total energy-change (2. order) :-0.5215116E+02  (-0.5180677E+02)
 number of electron     512.0000000 magnetization 
 augmentation part      512.0000000 magnetization 

 Free energy of the ion-electron system (eV)
  ---------------------------------------------------
  alpha Z        PSCENC =       346.92223762
  Ewald energy   TEWEN  =    -12872.92311816
  -Hartree energ DENC   =    -12756.44558735
  -exchange      EXHF   =         0.00000000
  -V(xc)+E(xc)   XCENC  =      1956.20510356
  PAW double counting   =     22356.74727657   -22390.29116979
  entropy T*S    EENTRO =        -0.00000000
  eigenvalues    EBANDS =     -6920.86013614
  atomic energy  EATOM  =     29266.49212746
  Solvation  Ediel_sol  =         0.00000000
  ---------------------------------------------------
  free energy    TOTEN  =     -1014.15326624 eV

  energy without entropy =    -1014.15326624  energy(sigma->0) =    -1014.15326624


--------------------------------------------------------------------------------------------------------




--------------------------------------- Iteration      1(   5)  ---------------------------------------


     EDDAV:  cpu time      5.6342: real time      5.6824
       DOS:  cpu time      0.0004: real time      0.0004
    CHARGE:  cpu time      0.1215: real time      0.1232
    MIXING:  cpu time      0.0014: real time      0.0020
    --------------------------------------------
      LOOP:  cpu time      5.7576: real time      5.8080

 eigenvalue-minimisations  :  1984
 total energy-change (2. order) :-0.1968431E+01  (-0.1966092E+01)
 number of electron     511.9999896 magnetization 
 augmentation part        9.7539412 magnetization 

 Broyden mixing:
  rms(total) = 0.59729E+01    rms(broyden)= 0.59643E+01
  rms(prec ) = 0.71950E+01
  weight for this iteration     100.00

 Free energy of the ion-electron system (eV)
  ---------------------------------------------------
  alpha Z        PSCENC =       346.92223762
  Ewald energy   TEWEN  =    -12872.92311816
  -Hartree energ DENC   =    -12756.44558735
  -exchange      EXHF   =         0.00000000
  -V(xc)+E(xc)   XCENC  =      1956.20510356
  PAW double counting   =     22356.74727657   -22390.29116979
  entropy T*S    EENTRO =        -0.00000000
  eigenvalues    EBANDS =     -6922.82856677
  atomic energy  EATOM  =     29266.49212746
  Solvation  Ediel_sol  =         0.00000000
  ---------------------------------------------------
  free energy    TOTEN  =     -1016.12169687 eV

  energy without entropy =    -1016.12169687  energy(sigma->0) =    -1016.12169687


--------------------------------------------------------------------------------------------------------




--------------------------------------- Iteration      1(   6)  ---------------------------------------


    POTLOK:  cpu time      0.0584: real time      0.0586
    SETDIJ:  cpu time      0.0042: real time      0.0042
     EDDAV:  cpu time      4.9029: real time      4.9411
       DOS:  cpu time      0.0002: real time      0.0002
    CHARGE:  cpu time      0.1103: real time      0.1108
    MIXING:  cpu time      0.0014: real time      0.0014
    --------------------------------------------
      LOOP:  cpu time      5.0773: real time      5.1163

 eigenvalue-minimisations  :  1656
 total energy-change (2. order) :-0.1252864E+02  (-0.1557711E+03)
 number of electron     511.9999961 magnetization 
 augmentation part        4.0220367 magnetization 

 Broyden mixing:
  rms(total) = 0.73143E+01    rms(broyden)= 0.73134E+01
  rms(prec ) = 0.84725E+01
  weight for this iteration     100.00

 eigenvalues of (default mixing * dielectric matrix)
  average eigenvalue GAMMA=   0.4419
  0.4419

 Free energy of the ion-electron system (eV)
  ---------------------------------------------------
  alpha Z        PSCENC =       346.92223762
  Ewald energy   TEWEN  =    -12872.92311816
  -Hartree energ DENC   =    -15751.92019141
  -exchange      EXHF   =         0.00000000
  -V(xc)+E(xc)   XCENC  =      2134.32625801
  PAW double counting   =     25057.92499213   -25090.88425487
  entropy T*S    EENTRO =        -0.00000000
  eigenvalues    EBANDS =     -4118.58839160
  atomic energy  EATOM  =     29266.49212746
  Solvation  Ediel_sol  =         0.00000000
  ---------------------------------------------------
  free energy    TOTEN  =     -1028.65034082 eV

  energy without entropy =    -1028.65034082  energy(sigma->0) =    -1028.65034082


--------------------------------------------------------------------------------------------------------




--------------------------------------- Iteration      1(   7)  ---------------------------------------


    POTLOK:  cpu time      0.0617: real time      0.0620
    SETDIJ:  cpu time      0.0043: real time      0.0044
     EDDAV:  cpu time      5.1909: real time      5.2308
       DOS:  cpu time      0.0004: real time      0.0004
    CHARGE:  cpu time      0.1190: real time      0.1198
    MIXING:  cpu time      0.0026: real time      0.0028
    --------------------------------------------
      LOOP:  cpu time      5.3788: real time      5.4202

 eigenvalue-minimisations  :  1792
 total energy-change (2. order) : 0.1026260E+03  (-0.4232435E+02)
 number of electron     511.9999927 magnetization 
 augmentation part        7.1414196 magnetization 

 Broyden mixing:
  rms(total) = 0.10589E+01    rms(broyden)= 0.10572E+01
  rms(prec ) = 0.11414E+01
  weight for this iteration     100.00

 eigenvalues of (default mixing * dielectric matrix)
  average eigenvalue GAMMA=   0.9228
  1.3598  0.4859

 Free energy of the ion-electron system (eV)
  ---------------------------------------------------
  alpha Z        PSCENC =       346.92223762
  Ewald energy   TEWEN  =    -12872.92311816
  -Hartree energ DENC   =    -14381.10727808
  -exchange      EXHF   =         0.00000000
  -V(xc)+E(xc)   XCENC  =      2054.80006124
  PAW double counting   =     22668.00734018   -22700.08392407
  entropy T*S    EENTRO =        -0.00000000
  eigenvalues    EBANDS =     -5308.13182849
  atomic energy  EATOM  =     29266.49212746
  Solvation  Ediel_sol  =         0.00000000
  ---------------------------------------------------
  free energy    TOTEN  =      -926.02438230 eV

  energy without entropy =     -926.02438230  energy(sigma->0) =     -926.02438230


--------------------------------------------------------------------------------------------------------




--------------------------------------- Iteration      1(   8)  ---------------------------------------


    POTLOK:  cpu time      0.0583: real time      0.0586
    SETDIJ:  cpu time      0.0042: real time      0.0042
     EDDAV:  cpu time      5.0087: real time      5.0470
       DOS:  cpu time      0.0002: real time      0.0002
    CHARGE:  cpu time      0.1190: real time      0.1198
    MIXING:  cpu time      0.0013: real time      0.0013
    --------------------------------------------
      LOOP:  cpu time      5.1916: real time      5.2311

 eigenvalue-minimisations  :  1728
 total energy-change (2. order) :-0.2111009E+01  (-0.3288718E+01)
 number of electron     511.9999924 magnetization 
 augmentation part        7.3831568 magnetization 

 Broyden mixing:
  rms(total) = 0.67264E+00    rms(broyden)= 0.67230E+00
  rms(prec ) = 0.76010E+00
  weight for this iteration     100.00

 eigenvalues of (default mixing * dielectric matrix)
  average eigenvalue GAMMA=   0.7735
  1.3156  0.5025  0.5025

 Free energy of the ion-electron system (eV)
  ---------------------------------------------------
  alpha Z        PSCENC =       346.92223762
  Ewald energy   TEWEN  =    -12872.92311816
  -Hartree energ DENC   =    -14402.56151052
  -exchange      EXHF   =         0.00000000
  -V(xc)+E(xc)   XCENC  =      2059.29040867
  PAW double counting   =     21559.68080614   -21590.55232473
  entropy T*S    EENTRO =        -0.00000000
  eigenvalues    EBANDS =     -5294.48401815
  atomic energy  EATOM  =     29266.49212746
  Solvation  Ediel_sol  =         0.00000000
  ---------------------------------------------------
  free energy    TOTEN  =      -928.13539167 eV

  energy without entropy =     -928.13539167  energy(sigma->0) =     -928.13539167


--------------------------------------------------------------------------------------------------------




--------------------------------------- Iteration      1(   9)  ---------------------------------------


    POTLOK:  cpu time      0.0548: real time      0.0556
    SETDIJ:  cpu time      0.0042: real time      0.0042
     EDDAV:  cpu time      5.4260: real time      5.4673
       DOS:  cpu time      0.0002: real time      0.0002
    CHARGE:  cpu time      0.1075: real time      0.1080
    MIXING:  cpu time      0.0013: real time      0.0013
    --------------------------------------------
      LOOP:  cpu time      5.5939: real time      5.6366

 eigenvalue-minimisations  :  1880
 total energy-change (2. order) : 0.6410234E+00  (-0.2167484E+00)
 number of electron     511.9999925 magnetization 
 augmentation part        7.3014803 magnetization 

 Broyden mixing:
  rms(total) = 0.32729E+00    rms(broyden)= 0.32726E+00
  rms(prec ) = 0.35991E+00
  weight for this iteration     100.00

 eigenvalues of (default mixing * dielectric matrix)
  average eigenvalue GAMMA=   0.7760
  1.2852  0.4861  0.6665  0.6665

 Free energy of the ion-electron system (eV)
  ---------------------------------------------------
  alpha Z        PSCENC =       346.92223762
  Ewald energy   TEWEN  =    -12872.92311816
  -Hartree energ DENC   =    -14410.51421930
  -exchange      EXHF   =         0.00000000
  -V(xc)+E(xc)   XCENC  =      2059.19371693
  PAW double counting   =     21541.84944885   -21572.66355198
  entropy T*S    EENTRO =        -0.00000000
  eigenvalues    EBANDS =     -5285.85100967
  atomic energy  EATOM  =     29266.49212746
  Solvation  Ediel_sol  =         0.00000000
  ---------------------------------------------------
  free energy    TOTEN  =      -927.49436826 eV

  energy without entropy =     -927.49436826  energy(sigma->0) =     -927.49436826


--------------------------------------------------------------------------------------------------------




--------------------------------------- Iteration      1(  10)  ---------------------------------------


    POTLOK:  cpu time      0.0737: real time      0.0741
    SETDIJ:  cpu time      0.0043: real time      0.0044
     EDDAV:  cpu time      4.9845: real time      5.0229
       DOS:  cpu time      0.0003: real time      0.0003
    CHARGE:  cpu time      0.1147: real time      0.1153
    MIXING:  cpu time      0.0013: real time      0.0013
    --------------------------------------------
      LOOP:  cpu time      5.1789: real time      5.2183

 eigenvalue-minimisations  :  1712
 total energy-change (2. order) : 0.4028767E-01  (-0.9173371E-01)
 number of electron     511.9999925 magnetization 
 augmentation part        7.2436027 magnetization 

 Broyden mixing:
  rms(total) = 0.15469E+00    rms(broyden)= 0.15466E+00
  rms(prec ) = 0.16723E+00
  weight for this iteration     100.00

 eigenvalues of (default mixing * dielectric matrix)
  average eigenvalue GAMMA=   0.7949
  1.1412  1.1412  0.4963  0.5979  0.5979

 Free energy of the ion-electron system (eV)
  ---------------------------------------------------
  alpha Z        PSCENC =       346.92223762
  Ewald energy   TEWEN  =    -12872.92311816
  -Hartree energ DENC   =    -14425.00588072
  -exchange      EXHF   =         0.00000000
  -V(xc)+E(xc)   XCENC  =      2059.67974690
  PAW double counting   =     21475.13363567   -21505.87363896
  entropy T*S    EENTRO =        -0.00000000
  eigenvalues    EBANDS =     -5271.87919040
  atomic energy  EATOM  =     29266.49212746
  Solvation  Ediel_sol  =         0.00000000
  ---------------------------------------------------
  free energy    TOTEN  =      -927.45408058 eV

  energy without entropy =     -927.45408058  energy(sigma->0) =     -927.45408058


--------------------------------------------------------------------------------------------------------




--------------------------------------- Iteration      1(  11)  ---------------------------------------


    POTLOK:  cpu time      0.0581: real time      0.0583
    SETDIJ:  cpu time      0.0042: real time      0.0042
     EDDAV:  cpu time      5.2406: real time      5.2822
       DOS:  cpu time      0.0005: real time      0.0005
    CHARGE:  cpu time      0.1127: real time      0.1132
    MIXING:  cpu time      0.0014: real time      0.0014
    --------------------------------------------
      LOOP:  cpu time      5.4175: real time      5.4599

 eigenvalue-minimisations  :  1784
 total energy-change (2. order) : 0.1691766E-01  (-0.1647193E-01)
 number of electron     511.9999926 magnetization 
 augmentation part        7.2028032 magnetization 

 Broyden mixing:
  rms(total) = 0.58911E-01    rms(broyden)= 0.58890E-01
  rms(prec ) = 0.61996E-01
  weight for this iteration     100.00

 eigenvalues of (default mixing * dielectric matrix)
  average eigenvalue GAMMA=   0.9274
  1.9763  1.1831  0.7079  0.5022  0.5973  0.5973

 Free energy of the ion-electron system (eV)
[...]
 ion   55
    1     0.53393    -0.12511    -0.21617
    2    -0.10778     0.29315     0.04622
    3    -0.15648     0.00452     0.47424
 ion   56
    1     0.66230    -0.27548    -0.14549
    2    -0.29658     0.50443     0.16496
    3    -0.13658     0.14153     0.29980
 ion   57
    1     0.28675     0.06348     0.02355
    2     0.05934     0.31097     0.00519
    3     0.03283    -0.01318     0.37594
 ion   58
    1     0.85147    -0.31143     0.13570
    2    -0.29485     0.40871    -0.08096
    3     0.14803    -0.08186     0.30127
 ion   59
    1     0.26745    -0.21754    -0.05568
    2    -0.22901     1.11943    -0.01588
    3    -0.02783    -0.13186     0.23323
 ion   60
    1     0.36964     0.04577    -0.14703
    2     0.04066     0.39315    -0.05189
    3    -0.10114    -0.04900     0.44909
 ion   61
    1     0.27986    -0.02045    -0.00206
    2    -0.02811     0.35579    -0.15706
    3     0.00987    -0.12923     0.62553
 ion   62
    1     0.70329     0.00747     0.43249
    2    -0.01370     0.27217    -0.01456
    3     0.44455    -0.01229     0.59585
 ion   63
    1     0.29561    -0.07152     0.06795
    2    -0.04715     0.63126    -0.18719
    3     0.04544    -0.16196     0.42693
 ion   64
    1     0.77332     0.41361    -0.15277
    2     0.47519     0.60334    -0.12362
    3    -0.15431    -0.10937     0.28292
 ion   65
    1     0.46038    -0.07218     0.11837
    2    -0.01443     0.31011    -0.04466
    3     0.10068    -0.05719     0.51033
 ion   66
    1     0.74430    -0.13420    -0.23729
    2    -0.10820     0.39772     0.11422
    3    -0.22461     0.13106     0.34134
 ion   67
    1     0.21195    -0.04717    -0.00969
    2    -0.07382     0.42717     0.35219
    3    -0.04189     0.29545     1.09412
 ion   68
    1     1.00542     0.48086     0.28316
    2     0.39451     0.53105     0.15100
    3     0.24669     0.16461     0.29385
 ion   69
    1     0.55104     0.30193    -0.03785
    2     0.32937     0.45418    -0.04344
    3    -0.05709    -0.03973     0.36403
 ion   70
    1     0.88355     0.11393    -0.37275
    2     0.11140     0.32664    -0.05245
    3    -0.31231    -0.03775     0.37000
 ion   71
    1     0.39536    -0.31537    -0.23201
    2    -0.27713     0.65063     0.34161
    3    -0.22020     0.35499     0.61076
 ion   72
    1     0.38165     0.18248     0.03232
    2     0.22854     0.83552     0.01697
    3     0.01451    -0.00887     0.29496
 ion   73
    1     0.54795    -0.21693    -0.07064
    2    -0.18842     0.43248     0.11329
    3    -0.01538     0.08072     0.37657
 ion   74
    1     0.35784     0.20903     0.06968
    2     0.19695     0.93922     0.19042
    3     0.05903     0.13422     0.30040
 ion   75
    1     0.63300     0.08095    -0.14769
    2     0.06403     0.29446    -0.08193
    3    -0.15404    -0.08730     0.36491
 ion   76
    1     0.28706    -0.04900    -0.10166
    2    -0.05967     0.43953     0.06455
    3    -0.10740     0.07707     0.37063
 ion   77
    1     0.34404    -0.09731    -0.09764
    2    -0.09570     0.55998     0.07837
    3    -0.09317     0.08942     0.46975
 ion   78
    1     0.38135     0.06596    -0.00398
    2     0.10742     0.35299     0.00847
    3    -0.02957    -0.00854     0.37923
 ion   79
    1     0.34516     0.05652    -0.11746
    2     0.04730     0.39955    -0.05777
    3    -0.12845    -0.08740     0.38291
 ion   80
    1     0.92795     0.36472     0.08241
    2     0.34481     0.51778     0.09215
    3     0.11842     0.12496     0.23517
 ion   81
    1     0.59705     0.12443     0.15104
    2     0.12569     0.44639     0.08822
    3     0.16171     0.10165     0.32648
 ion   82
    1     0.45492     0.36579     0.28024
    2     0.31478     0.67798     0.28809
    3     0.24988     0.32706     0.53582
 ion   83
    1     0.21470     0.02395    -0.00703
    2     0.02174     0.68801     0.22911
    3     0.00893     0.25555     0.52600
 ion   84
    1     0.37463     0.28755     0.04163
    2     0.28294     0.93062     0.07710
    3     0.01716     0.03140     0.23164
 ion   85
    1     0.36426    -0.13889     0.20445
    2    -0.17750     0.51903    -0.42453
    3     0.26933    -0.38959     0.80156
 ion   86
    1     0.45272    -0.01528    -0.02764
    2    -0.02839     0.25853    -0.06994
    3    -0.02109    -0.02919     0.31779
 ion   87
    1     0.41168    -0.26224     0.16720
    2    -0.25041     0.72478    -0.13620
    3     0.18794    -0.17680     0.34630
 ion   88
    1     0.62284    -0.20207     0.33729
    2    -0.20973     0.37316    -0.23828
    3     0.31614    -0.21412     0.66207
 ion   89
    1     0.28126    -0.06467    -0.02395
    2    -0.07985     0.41382     0.10057
    3    -0.02887     0.11622     0.37674
 ion   90
    1     0.86401    -0.39091     0.22286
    2    -0.36387     0.46628    -0.15735
    3     0.25878    -0.18702     0.36902
 ion   91
    1     0.22867     0.04513    -0.05066
    2     0.03181     0.38589    -0.05035
    3    -0.06945    -0.06865     0.82873
 ion   92
    1     0.38210    -0.08711    -0.06119
    2    -0.08984     0.28599     0.05210
    3    -0.04993     0.02806     0.24812
 ion   93
    1     0.55441     0.08063    -0.12128
    2     0.07410     0.24009    -0.10694
    3    -0.07801    -0.12064     0.33501
 ion   94
    1     0.36316    -0.04873    -0.01498
    2    -0.02542     0.40382    -0.06442
    3    -0.04059    -0.04360     0.39719
 ion   95
    1     0.36303     0.01284    -0.15385
    2     0.01667     0.32791     0.07409
    3    -0.15748     0.07507     0.71468
 ion   96
    1     0.68515     0.22728     0.26391
    2     0.20985     0.44319     0.11371
    3     0.25292     0.11788     0.34220
 ion   97
    1     0.74819     0.13280     0.28253
    2     0.12467     0.30413     0.11237
    3     0.30139     0.13005     0.44420
 ion   98
    1     0.48382     0.12550    -0.29114
    2     0.09180     0.35729    -0.15848
    3    -0.28424    -0.18320     0.60688
 ion   99
    1     0.38046     0.13545     0.12958
    2     0.10498     0.48830     0.14019
    3     0.11495     0.16401     0.42169
 ion  100
    1     0.27697     0.07665    -0.07366
    2     0.00962     0.25954     0.04850
    3    -0.04179     0.06637     0.35439
 ion  101
    1     0.30883     0.01927     0.03468
    2     0.01085     0.73138     0.08731
    3     0.03056     0.11697     0.33008
 ion  102
    1     0.32766    -0.02281    -0.03872
    2    -0.05908     0.47323    -0.07803
    3    -0.01895    -0.12169     0.37839
 ion  103
    1     0.41590     0.03757    -0.00590
    2     0.04946     0.26018     0.02956
    3    -0.02233     0.02627     0.26353
 ion  104
    1     0.76980    -0.21504     0.19738
    2    -0.18736     0.30332    -0.06305
    3     0.24471    -0.10430     0.42865
 ion  105
    1     0.67371    -0.16261     0.06506
    2    -0.16098     0.30599     0.07037
    3     0.02319     0.07503     0.28284
 ion  106
    1     0.28959     0.07267     0.10691
    2     0.04758     0.26496     0.11085
    3     0.08527     0.08643     0.56945
 ion  107
    1     0.38184    -0.21238     0.12931
    2    -0.23667     0.78065    -0.23591
    3     0.13598    -0.22977     0.35423
 ion  108
    1     0.46307     0.12977    -0.20572
    2     0.17616     0.37137    -0.29619
    3    -0.26347    -0.27223     0.69769
 ion  109
    1     0.39482    -0.08931    -0.12724
    2    -0.04435     0.35038    -0.03255
    3    -0.11439    -0.02730     0.34777
 ion  110
    1     0.37832     0.04462    -0.17092
    2     0.04474     0.26782    -0.05478
    3    -0.18979    -0.09013     0.69615
 ion  111
    1     0.76726    -0.18751    -0.30264
    2    -0.16018     0.33545     0.06905
    3    -0.30636     0.09897     0.39643
 ion  112
    1     0.30180    -0.00363    -0.07608
    2     0.00086     0.33665     0.16801
    3    -0.04737     0.09174     0.99860
 ion  113
    1     0.39760    -0.03578     0.05753
    2    -0.03348     0.41274     0.03570
    3     0.04842     0.04803     0.38249
 ion  114
    1     0.48034     0.02203    -0.06525
    2     0.01587     0.33734    -0.00439
    3    -0.12241    -0.01917     0.27702
 ion  115
    1     0.73488     0.18400    -0.36283
    2     0.20130     0.31062    -0.16272
    3    -0.44274    -0.18410     0.61393
 ion  116
    1     0.29944    -0.00626     0.03556
    2     0.00387     0.29896    -0.03104
    3     0.02462    -0.02158     0.38982
 ion  117
    1     0.50409    -0.01883     0.35514
    2     0.00246     0.34558    -0.01084
    3     0.34497    -0.04022     0.68179
 ion  118
    1     0.63331     0.49294     0.04602
    2     0.44845     0.98147     0.10097
    3     0.02982     0.09137     0.19330
 ion  119
    1     0.40929     0.15100    -0.02687
    2     0.21351     0.44572    -0.19875
    3    -0.03056    -0.19020     0.38770
 ion  120
    1     0.29118    -0.10965    -0.02406
    2    -0.11169     0.76335    -0.06823
    3    -0.02300    -0.09877     0.34028
 ion  121
    1     0.44605     0.32784     0.12817
    2     0.34607     0.86550     0.18218
    3     0.11252     0.15306     0.29824
 ion  122
    1     0.56847    -0.05139     0.36334
    2    -0.10714     0.24800    -0.03740
    3     0.34699     0.02762     0.85466
 ion  123
    1     0.31503     0.07064    -0.16577
    2     0.07950     0.49784    -0.22115
    3    -0.15277    -0.18353     0.53982
 ion  124
    1     0.34745     0.05664    -0.12065
    2     0.04144     0.35653     0.09782
    3    -0.11343     0.05644     0.40859
 ion  125
    1     0.65833     0.28844     0.31022
    2     0.28966     0.55108     0.15347
    3     0.28706     0.14298     0.36364
 ion  126
    1     0.30875    -0.17517    -0.17131
    2    -0.13015     0.43815     0.29798
    3    -0.13246     0.30013     0.72613
 ion  127
    1     0.98704    -0.06878     0.18287
    2    -0.02497     0.17081    -0.03118
    3     0.18909    -0.02064     0.37313
 ion  128
    1     0.32045    -0.08478    -0.01795
    2    -0.06314     0.43226    -0.03694
    3    -0.03004    -0.02487     0.31213
 ion  129
    1    -0.85421    -0.10134    -0.10829
    2    -0.10872    -0.90586    -0.03459
    3    -0.13427    -0.10248    -0.90794
 ion  130
    1    -0.68155    -0.08523    -0.05578
    2    -0.01319    -1.01425     0.15284
    3    -0.06486     0.09230    -1.09134
 ion  131
    1    -1.07963     0.00177     0.15690
    2    -0.00112    -0.59517    -0.10483
    3     0.08181    -0.09752    -0.67737
 ion  132
    1    -0.95004    -0.02489    -0.03211
    2    -0.01157    -0.94801    -0.03010
    3    -0.03179    -0.10523    -1.04124
 ion  133
    1    -0.82951     0.05109    -0.15864
    2     0.00201    -0.93439    -0.22120
    3    -0.06878    -0.14755    -0.81870
 ion  134
    1    -0.84647    -0.05280    -0.06834
    2     0.00598    -0.92131    -0.09383
    3     0.01758    -0.04171    -0.81349
 ion  135
    1    -0.86471    -0.12100    -0.03429
    2    -0.11611    -1.20488    -0.05611
    3    -0.09613     0.02169    -0.80310
 ion  136
    1    -0.86533     0.06213     0.20003
    2     0.01672    -1.05839     0.12360
    3     0.14162     0.11267    -1.29810
 ion  137
    1    -0.73282    -0.09432    -0.05429
    2    -0.07472    -0.55915     0.06033
    3     0.01126     0.05670    -0.88251
 ion  138
    1    -0.91743    -0.07854    -0.00655
    2    -0.09431    -1.02362    -0.10588
    3     0.02850    -0.04630    -0.92922
 ion  139
    1    -0.74311    -0.22435    -0.08158
    2    -0.14605    -0.63872     0.04639
    3    -0.09737    -0.00089    -0.91759
 ion  140
    1    -0.92052    -0.12967     0.03042
    2    -0.11566    -0.82402    -0.06973
    3     0.04970    -0.09820    -0.78020
 ion  141
    1    -1.09802    -0.00670     0.16883
    2     0.02624    -1.08794    -0.00654
    3     0.17438    -0.05538    -0.71854
 ion  142
    1    -0.61739     0.02103     0.07210
    2     0.00361    -0.91968     0.29824
    3     0.06201     0.31785    -1.03347
 ion  143
    1    -1.03802     0.22668     0.09892
    2     0.18088    -1.12701    -0.18841
    3     0.09303    -0.14737    -0.89634
 ion  144
    1    -0.71104     0.09296    -0.03906
    2     0.08555    -0.62903     0.07302
    3    -0.04455     0.01669    -0.91227
 ion  145
    1    -0.85251     0.03565    -0.07120
    2    -0.02949    -0.94248     0.02978
    3    -0.09874     0.08542    -0.85980
 ion  146
    1    -1.22248     0.13232     0.08078
    2     0.14081    -0.95183    -0.03362
    3     0.12197    -0.08634    -0.66458
 ion  147
    1    -0.97935    -0.08477    -0.06526
    2    -0.07772    -0.78460    -0.04177
    3    -0.05131    -0.13641    -1.04482
 ion  148
    1    -0.74839    -0.16897     0.08139
    2    -0.15648    -0.80763    -0.09804
    3     0.00703    -0.12245    -0.75805
 ion  149
    1    -0.86161    -0.02965    -0.19160
    2     0.02432    -0.78668     0.10676
    3    -0.14305     0.02977    -0.89389
 ion  150
    1    -0.81198     0.11824    -0.12638
    2     0.05409    -0.91465    -0.18071
    3    -0.10498    -0.16474    -0.88259
 ion  151
    1    -0.95452     0.00173    -0.01921
    2     0.02841    -0.89169    -0.05599
    3    -0.06195    -0.05049    -0.86322
 ion  152
    1    -0.99108     0.14895    -0.12693
    2     0.05132    -1.03119    -0.02298
    3    -0.16758     0.06153    -0.95322
 ion  153
    1    -0.71632    -0.25744    -0.15102
    2    -0.27080    -0.76646     0.07291
    3    -0.13359     0.08649    -0.99804
 ion  154
    1    -1.05177     0.05063    -0.01499
    2     0.11075    -0.74667     0.14543
    3    -0.02057     0.12148    -0.97103
 ion  155
    1    -0.86902     0.02340    -0.00891
    2     0.05731    -1.06090     0.11410
    3    -0.07718     0.03862    -1.16669
 ion  156
    1    -0.82062    -0.07162    -0.11854
    2    -0.07113    -0.85176    -0.03568
    3    -0.14314     0.00294    -0.86442
 ion  157
    1    -0.89931     0.08496    -0.08961
    2     0.00536    -1.06619    -0.01129
    3    -0.10500     0.00797    -0.71346
 ion  158
    1    -1.00451    -0.26362    -0.01410
    2    -0.13317    -0.97568     0.05200
    3    -0.00152    -0.04758    -1.19086
 ion  159
    1    -1.09955    -0.00104     0.05499
    2    -0.08909    -1.05163     0.07232
    3     0.00496     0.01650    -0.68427
 ion  160
    1    -1.11450    -0.18480     0.10656
    2    -0.24702    -0.87261    -0.01255
    3     0.17762    -0.05320    -0.82839
 ion  161
    1    -0.92789     0.18947    -0.03439
    2     0.17823    -1.29068    -0.05992
    3     0.06566    -0.06669    -1.06090
 ion  162
    1    -1.07209     0.13276    -0.05994
    2     0.12797    -1.02024     0.01284
    3    -0.05915     0.03030    -1.04435
 ion  163
    1    -0.96714    -0.10148    -0.05344
    2    -0.17825    -0.82823     0.00209
    3    -0.07699     0.00833    -0.86952
 ion  164
    1    -1.02851    -0.15644     0.07864
    2    -0.15832    -0.80284    -0.26073
    3     0.07364    -0.24567    -0.71146
 ion  165
    1    -0.94456    -0.02910    -0.23424
    2    -0.06847    -1.22773    -0.04951
    3    -0.21099     0.01322    -1.17205
 ion  166
    1    -1.25739    -0.16736    -0.08949
    2    -0.07984    -0.93345    -0.01591
    3    -0.06834    -0.04000    -1.11730
 ion  167
    1    -1.11943    -0.02592     0.02698
    2    -0.12763    -0.95006    -0.00565
    3    -0.00560     0.08801    -0.78451
 ion  168
    1    -1.14855    -0.16809     0.06854
    2    -0.12163    -0.71467     0.00010
    3     0.07191    -0.02721    -0.73997
 ion  169
    1    -0.90439     0.01259    -0.10361
    2     0.00698    -0.85186    -0.13730
    3    -0.08304    -0.08650    -0.90569
 ion  170
    1    -1.23841    -0.08271     0.23433
    2    -0.03247    -1.02156    -0.21391
    3     0.21979    -0.14941    -0.89719
 ion  171
    1    -0.80798     0.07467    -0.04467
    2     0.07931    -0.90215     0.11392
    3    -0.10985     0.16401    -0.91735
 ion  172
    1    -0.73600    -0.15297     0.05916
    2    -0.07395    -1.03104    -0.00778
    3     0.06759     0.07054    -0.77312
 ion  173
    1    -0.78530    -0.02170     0.03481
    2    -0.04148    -0.82597    -0.10574
    3     0.06477    -0.10663    -1.04002
 ion  174
    1    -0.62093     0.03563     0.11908
    2     0.06070    -0.95605     0.09876
    3     0.06994     0.16122    -0.73358
 ion  175
    1    -0.87385    -0.14099    -0.03651
    2    -0.09305    -0.76482    -0.17288
    3    -0.03033    -0.17145    -0.70176
 ion  176
    1    -0.79258     0.14127    -0.05382
    2     0.03454    -0.55726    -0.12334
    3    -0.13449    -0.04989    -1.26619
 ion  177
    1    -0.86489     0.10254    -0.15384
    2     0.08089    -0.92942    -0.06720
    3    -0.15717    -0.06829    -0.93504
 ion  178
    1    -0.99808    -0.01112    -0.13978
    2    -0.07106    -0.76214     0.10531
    3    -0.07087     0.04905    -1.01733
 ion  179
    1    -0.90764    -0.09356     0.07382
    2     0.04155    -0.92466     0.04572
    3     0.07988    -0.02735    -1.04307
 ion  180
    1    -1.16474     0.08702    -0.05945
    2     0.09198    -1.10220     0.01421
    3    -0.00560    -0.01061    -0.94853
 ion  181
    1    -0.80978    -0.00197     0.05336
    2    -0.07585    -0.88429    -0.07776
    3     0.06170    -0.10987    -0.77527
 ion  182
    1    -0.92560    -0.07272     0.05194
    2    -0.01954    -1.04239    -0.05386
    3     0.11627     0.15396    -0.96947
 ion  183
    1    -1.00558     0.03395    -0.00307
    2     0.04570    -1.24552     0.04308
    3    -0.12324    -0.05010    -1.02726
 ion  184
    1    -0.93388     0.07575     0.13731
    2     0.12958    -0.68127    -0.16757
    3     0.17911    -0.11294    -1.12460
 ion  185
    1    -1.07132     0.10729     0.04218
    2     0.08906    -0.72416    -0.06117
    3    -0.02593    -0.09798    -0.83028
 ion  186
    1    -0.89164    -0.06833    -0.10522
    2    -0.01535    -0.85941    -0.11311
    3     0.01273    -0.09946    -0.80585
 ion  187
    1    -0.86192    -0.11033     0.13376
    2    -0.05609    -0.72815     0.06122
    3     0.22210     0.06032    -1.05641
 ion  188
    1    -1.00670     0.29476    -0.01578
    2     0.24169    -0.68631    -0.00689
    3     0.00636     0.04702    -1.02930
 ion  189
    1    -0.95590    -0.16206    -0.07622
    2    -0.19685    -1.01938    -0.07350
    3    -0.03272     0.01197    -0.98614
 ion  190
    1    -1.05704    -0.25347     0.21576
    2    -0.14065    -1.07268    -0.04459
    3     0.15171    -0.03009    -0.57277
 ion  191
    1    -0.86247     0.02075    -0.00715
    2    -0.07212    -0.78153     0.16013
    3    -0.06195     0.15145    -0.75683
 ion  192
    1    -0.90743     0.05407    -0.07412
    2     0.05834    -1.00490     0.06198
    3    -0.06374     0.06313    -0.64111


--------------------------------------------------------------------------------------------------------


     LOOP+:  cpu time    545.6329: real time    558.0201
    4ORBIT:  cpu time      0.0000: real time      0.0000

 total amount of memory used by VASP MPI-rank0    68041. kBytes
=======================================================================

   base      :      30000. kBytes
   nonlr-proj:       4318. kBytes
   fftplans  :       6254. kBytes
   grid      :       9391. kBytes
   one-center:         73. kBytes
   wavefun   :      18005. kBytes
 
  
  
 General timing and accounting informations for this job:
 ========================================================
  
                  Total CPU time used (sec):      554.300
                            User time (sec):      480.069
                          System time (sec):       74.231
                         Elapsed time (sec):      567.455
  
                   Maximum memory used (kb):      783512.
                   Average memory used (kb):          N/A
  
                          Minor page faults:       108605
                          Major page faults:            0
                 Voluntary context switches:        31830
