  2.1813330e-01   1.7399741e-02
  5.7767290e-01   6.1586238e-03
 -1.3244738e-01   2.8349165e-02
 -1.1141089e-01   1.7515315e-02
  7.4195392e-02   5.8089732e-03
 -1.0741372e-01   3.1745389e-02
  8.0041271e-01   1.9405708e-02
  1.4673437e-01   7.6150559e-02
 -4.5081955e-01   9.1983341e-02
  7.4773617e-02   7.0647657e-02
 -3.1357817e-02   6.7759968e-02
  3.3341691e-02   3.2725032e-02
 -6.5939136e-02   4.3561749e-02
  7.5284079e-02   7.5701334e-02
 -2.9614013e-01   5.1684532e-02
  1.1119005e-02   3.5928562e-02
  6.2301439e-01   5.5708073e-02
  1.7676051e-01   2.3079703e-02
 -1.0716677e-01   9.3322963e-02
 -1.2352672e-01   6.8609407e-03
  2.4575797e-01   8.7371439e-02
 -5.9933031e-01   2.8449109e-02
 -3.1429362e-02   5.5965234e-02
  1.3953732e-01   8.0040596e-02
  1.8749337e-01   3.8515188e-02
 -9.3914885e-03   3.4377620e-02
  6.9177382e-02   6.3672081e-02
  4.2762496e-02   6.9747180e-02
  2.8437698e-01   7.6232702e-02
 -3.5370823e-02   6.3125208e-02
 -1.0001986e-01   9.2574187e-02
  4.8076805e-01   4.5940287e-02
 -7.3468220e-01   1.5655912e-02
 -1.2066570e-01   2.6719997e-02
 -7.1951613e-02   1.9789143e-02
  6.8738617e-02   5.4005131e-02
 -9.0349779e-02   8.8329598e-02
 -9.8387107e-02   4.2459227e-02
  1.1592802e-02   5.2717805e-02
  7.1063316e-03   2.6795996e-02
  1.4385144e+00   9.7622303e-03
  8.3309889e-02   6.5877721e-02
 -1.8049608e-01   2.8521182e-02
  3.0017665e-01   1.8737016e-02
 -8.3731063e-02   2.4131877e-02
 -4.1559890e-01   7.9056760e-03
  1.4170852e-01   2.3893965e-02
  2.4358451e-01   2.0672802e-02
  5.1461045e-02   3.7330981e-02
  2.2626612e-01   8.4774867e-02
 -1.0549933e-01   3.0208953e-02
 -1.5682307e-01   5.8693159e-02
 -1.8737151e-01   6.8395227e-02
  1.5963978e-01   7.0846088e-02
 -4.7990698e-02   5.5496376e-02
  4.3562703e-02   9.7992405e-02
 -2.1832517e-01   8.2988463e-02
 -2.8506342e-01   7.5380147e-02
 -1.4653450e-01   6.7627512e-02
  6.8790421e-02   1.9090163e-02
  3.6273155e-01   9.4015278e-02
  3.3742031e-03   1.5166679e-02
 -1.1989184e-01   5.4100256e-02
 -2.6278352e-02   6.5380886e-02
 -7.5029975e-01   1.6500778e-02
  1.0438139e-01   3.7606847e-02
  1.9523975e-01   1.1231423e-01
  1.5779150e-01   2.0226300e-02
  5.1505409e-02   6.6338263e-02
  3.0144656e-01   3.5209909e-02
 -7.7074736e-02   3.6250841e-02
  1.6013933e-02   1.7805263e-02
  5.9651963e-02   3.0992232e-02
  3.4554996e-02   5.2077763e-02
 -4.0892787e-02   8.6058557e-02
 -3.7999734e-02   3.4961637e-02
  3.0013070e-02   5.1406238e-02
  7.0311867e-02   5.9965719e-02
 -2.1348268e-01   6.7522995e-02
 -1.3459343e-01   1.3809338e-01
 -1.2735201e-01   1.0960983e-01
 -1.5163185e-01   1.0393410e-02
 -6.4540364e-02   2.7725365e-02
  3.3905718e-01   4.6022650e-02
  3.8221014e-01   2.3152283e-03
  1.8021176e-02   1.5937916e-03
  6.1874652e-01   2.8047785e-03
 -6.2593497e-02   8.9438999e-04
  2.0132862e-01   2.0202631e-03
  1.6864468e-01   2.2148509e-03
  3.0590698e-01   8.8252034e-03
 -7.5014454e-01   5.8828659e-02
  2.3446359e-02   1.5586735e-02
 -4.7313818e-01   2.3039417e-02
 -2.1064609e-01   1.1610787e-01
  2.6020285e-01   7.6096863e-02
 -9.9831715e-02   5.2697796e-02
 -2.9719694e-02   8.1535839e-03
  5.9121954e-01   3.0768726e-02
  3.6591895e-02   2.3264173e-02
 -2.4068429e-01   8.0537386e-02
 -1.7084228e-02   6.0341794e-02
 -2.2060575e-02   6.3323788e-02
  1.0564601e-02   7.3831834e-02
 -8.6239874e-02   2.1124849e-02
  9.0429276e-02   3.0015860e-02
  5.4200650e-03   2.2261648e-02
 -3.5871051e-02   5.5383977e-02
  7.4464895e-02   6.7366540e-02
  8.5741607e-03   4.2187255e-02
 -9.5723048e-02   1.8406268e-02
 -1.3728878e-01   1.9808674e-02
 -3.3049253e-01   2.1638365e-02
  2.8279242e-01   1.2255530e-01
  2.1866062e-01   1.5899979e-02
 -2.1686803e-01   4.2903740e-02
 -1.9072220e-01   4.9892396e-02
  6.1239753e-02   2.8683214e-02
  9.3634753e-03   2.0132860e-02
  1.4258843e-02   5.4516070e-02
 -3.4635499e-01   3.6254268e-02
 -4.3539502e-02   8.9593410e-02
  2.0725450e-01   5.0432697e-02
  1.7519191e-02   1.7114455e-02
  2.5870785e-04   3.2596901e-02
  1.2231122e-01   2.2190755e-02
 -4.6978703e-01   3.7809923e-02
 -7.8771282e-03   2.8761981e-02
  1.3765603e-01   6.2169187e-02
  1.5406525e-01   3.8194649e-02
  4.7355983e-01   3.0426797e-02
  3.7032221e-02   6.1946217e-02
  1.9961296e-01   2.7599560e-02
 -3.2890615e-01   8.0571629e-02
 -1.0626239e-01   7.4173748e-02
  9.5225081e-02   1.4461049e-01
  5.9615269e-02   7.6351278e-02
  1.3974950e+00   9.2673050e-03
 -4.2133719e-02   1.6754929e-02
  1.0789710e-01   8.3050244e-02
 -1.2226286e+00   1.0262882e-02
  1.2777886e-01   1.5830129e-02
 -1.6816774e-01   4.6275787e-02
 -1.2062684e-01   2.9616283e-02
 -2.1233810e-01   5.4261234e-02
 -2.3568241e-01   5.3392004e-02
 -9.0045162e-02   4.9315624e-02
  2.0074509e-01   7.2867833e-02
 -5.7801664e-02   4.1559845e-02
 -2.5839662e-02   3.3699881e-02
 -8.8225022e-02   9.4007902e-02
  3.5688657e-02   1.2006633e-01
 -2.5160875e-02   6.7199156e-02
  6.4923778e-02   8.6248904e-02
  2.1541166e-01   7.1265355e-02
 -4.5979130e-01   5.5401038e-02
  4.5079067e-01   7.6503277e-02
 -9.1500454e-02   5.1477298e-02
 -3.8405150e-01   9.9912219e-02
 -4.6820588e-02   7.5145401e-02
  1.3720731e-02   2.1600606e-02
  5.2836806e-01   7.2378024e-02
  1.5291370e-02   3.7886020e-02
  3.0310281e-02   9.9015780e-02
  3.1697348e-01   3.1459782e-02
  1.2804814e-01   5.5714101e-02
  2.8124094e-01   1.5427790e-02
  1.1383644e-01   2.7496621e-02
 -2.6098204e-01   3.7294146e-02
  1.2319292e-02   1.5577685e-02
 -7.8133121e-02   5.6801006e-02
  4.5884514e-01   2.1694591e-02
  1.0551484e-01   2.6456513e-02
  5.9313729e-02   2.2525929e-02
 -3.1257629e-01   9.3689337e-02
  3.4448403e-01   5.9164159e-02
 -6.7802593e-02   5.1803678e-02
 -3.4627190e-01   1.0093317e-01
  9.8145373e-02   1.7259086e-02
  8.5131638e-02   4.5065723e-02
  4.0610614e-01   6.8583846e-02
  3.3271822e-01   6.3213907e-02
 -8.8264622e-02   1.4172317e-01
 -6.5026917e-02   1.0240658e-01
  2.5381386e-01   1.2172123e-02
 -1.0776181e+00   8.7354854e-03
 -3.0812892e-01   4.6985697e-02
  8.7567113e-02   6.9023222e-02
  4.5448255e-02   4.0533874e-02
  5.6693021e-02   2.5081119e-02
 -4.1655287e-01   3.9130114e-02
  2.7895194e-01   8.0429465e-02
  2.0490982e-01   9.2964783e-02
 -2.5295311e-01   5.6430683e-02
 -2.1503088e-01   1.3695218e-01
  3.7536886e-02   5.9235957e-02
  1.1338718e-03   5.5933192e-02
 -1.6998973e-02   2.9272910e-02
  8.6611606e-02   7.4388519e-02
  8.0273591e-02   3.8136814e-02
 -1.0813481e-01   5.0297361e-02
  4.5894849e-01   6.2905267e-02
 -3.3715893e-02   1.0400542e-01
 -2.0154696e-03   1.0218780e-01
  2.2036511e-01   7.5654835e-02
  4.5536373e-02   3.5235245e-02
  6.9194216e-01   2.7503910e-02
 -2.6630461e-01   7.3399305e-02
 -8.7874401e-01   4.6271919e-03
  1.7813036e-01   3.4490667e-02
  3.9162841e-01   3.8135167e-02
  1.2440152e-01   2.2852356e-02
 -7.5822778e-02   4.9505126e-02
 -4.2702861e-02   6.9651785e-03
  1.2358385e-01   2.9101335e-02
  1.1425936e-01   1.4381018e-02
 -8.0282271e-02   5.8578942e-02
  3.8733220e-01   1.0827558e-01
  1.1483958e-01   1.0523935e-01
 -2.4630101e-01   2.4379602e-02
  3.3114024e-02   8.1988648e-02
 -2.6373708e-01   9.0515390e-02
  1.8606768e+00   8.8083958e-03
 -9.6051790e-02   5.0395850e-02
  2.1104391e-01   2.9487226e-02
 -1.9890608e-01   6.6800192e-02
 -3.6286406e-02   7.6517992e-02
  1.6525291e-01   6.5453827e-02
 -4.1497231e-01   5.4864015e-02
  6.2840277e-01   1.7158179e-02
  1.2153596e-01   7.3853195e-02
 -1.0732305e-01   5.1510122e-02
 -1.8347867e-01   5.8538292e-02
  1.2301750e-01   7.3220715e-02
 -2.0886321e-02   1.3546282e-02
 -7.0769481e-02   2.8878983e-02
 -8.3312742e-02   8.6067684e-02
 -3.3672619e-01   2.8584629e-02
 -2.1861206e-01   6.2361505e-02
 -1.2863925e-01   8.2279444e-02
  2.5952721e-01   6.2171869e-02
 -2.0124059e-02   4.6331521e-02
 -1.7984195e-01   8.5195303e-02
 -1.1726724e-01   5.2070659e-02
  1.8125582e-01   6.8525895e-02
 -1.6135120e-01   4.9989957e-02
 -7.5499302e-01   2.3886034e-02
 -3.5707766e-01   4.1074146e-02
 -1.8555479e-01   8.5916065e-02
 -1.5480107e-01   8.2297586e-02
  6.7412227e-02   8.2255371e-02
  2.4824271e-02   6.6204093e-02
 -2.7183688e-01   3.3022545e-02
  3.8533378e-01   2.3236813e-02
  2.9988194e-02   4.2436019e-02
 -4.8070934e-01   2.1146057e-02
  1.8645692e-01   7.0920385e-02
  1.6336697e-01   4.7010329e-02
 -1.7750052e-01   5.7381988e-02
 -4.4580501e-01   4.3109711e-02
  2.7399573e-01   2.7208701e-02
  1.1568849e-01   1.9193316e-02
 -2.1106116e-01   9.1095097e-02
  7.5002395e-02   3.3039503e-02
 -2.3049663e-01   6.8948843e-02
 -3.4116685e-02   5.9243053e-02
 -2.8973013e-01   6.9352277e-02
  9.6008144e-02   8.6745933e-02
 -1.4574839e-01   8.1838109e-02
 -1.0640036e-01   4.8520911e-02
 -4.3173811e-01   5.5092018e-02
 -2.9217777e-01   4.0326402e-02
 -7.3189527e-01   3.5316247e-02
 -1.3766895e-01   1.0113006e-01
 -6.8882592e-02   8.5795082e-02
  1.7561845e-01   2.8497145e-02
 -4.0588018e-02   4.1148052e-02
 -5.7541383e-03   9.2530750e-02
  1.3256890e-01   3.3361394e-02
 -9.7086402e-03   1.2418781e-02
  1.5379281e-02   4.4176277e-02
  5.7114378e-02   4.1978978e-02
  3.0271995e-01   7.2790161e-02
  6.6481039e-02   4.2222936e-02
 -4.0034118e-01   3.4953680e-02
 -1.6837241e-02   1.2935404e-01
 -1.5492174e-01   7.8247868e-02
  3.3676855e-02   4.2858057e-02
 -1.0524587e-02   7.7384658e-02
  5.5796243e-02   1.0864179e-01
  1.9907787e-01   3.5419643e-02
 -5.4233205e-02   7.9516783e-02
  3.5047349e-01   2.9779617e-02
 -3.3840770e-01   2.2599617e-02
  1.0283698e-02   1.2442326e-02
  2.6246399e-01   2.1072760e-02
 -1.7567039e-01   2.2501402e-02
  3.9258763e-02   1.2525468e-02
 -3.7611175e-01   2.5193522e-02
  9.5461413e-02   3.1789087e-02
 -5.0301962e-02   7.6376339e-03
  1.7244318e-01   9.2854463e-02
 -1.3537957e-01   6.9876701e-02
  1.3409309e-01   3.4299489e-02
  1.5137210e-01   5.0406087e-02
 -4.5235123e-02   4.4975471e-02
  2.7653691e-01   9.9800155e-03
  3.4443995e-01   2.9225338e-02
  1.1140863e-01   1.0675242e-01
  3.1067678e-01   4.9064521e-02
 -8.5966609e-02   4.1942533e-02
  2.5289547e-01   6.0697071e-02
 -2.3216735e-01   8.7717645e-02
  3.2159463e-01   3.5795365e-02
 -1.8228205e-01   3.6145508e-02
 -2.4866637e-02   1.5604069e-02
  2.7817981e-02   6.1383065e-02
  1.2519924e-01   2.0698354e-02
  1.2720342e-01   8.9366630e-02
  3.8830433e-02   3.1974584e-02
 -2.1022843e-01   9.3843848e-02
  3.6599409e-02   3.1138508e-02
  3.0137900e-01   5.4150894e-02
 -6.9304388e-03   5.3528458e-02
 -2.7702186e-01   5.4651506e-02
 -9.7824797e-02   6.9541357e-02
  6.5086986e-04   9.4083525e-02
 -1.2046466e-01   3.8724188e-02
 -2.0229188e-01   1.2340562e-01
  3.0107549e-01   4.3019254e-02
  4.2290866e-02   6.0132813e-02
  4.5974720e-01   5.6899410e-02
  3.5822041e-02   4.7740892e-02
  4.7367658e-02   5.6374356e-02
 -8.8659599e-02   4.1479126e-02
 -2.3453568e-01   6.8831742e-02
 -3.6290312e-01   3.0428994e-02
 -8.3181942e-01   1.6948592e-02
 -1.6244771e-02   7.5935490e-02
 -3.7172967e-01   4.8968974e-03
  2.0849860e-01   6.5782748e-02
  1.8637845e-01   5.0916977e-02
 -8.8857971e-02   4.2042095e-02
 -6.9118097e-02   1.6838411e-02
 -8.5642777e-02   2.5873834e-02
 -1.4011599e-02   1.0739595e-01
 -9.0332299e-02   3.1197578e-02
  6.4684674e-02   9.3175113e-02
 -1.5593566e-02   1.1791176e-02
 -1.1869193e-01   3.7496921e-02
 -1.3447742e-01   1.1694148e-02
  3.1322649e-01   5.2376505e-02
  9.6296780e-02   8.0775909e-02
 -4.7002384e-03   3.8360592e-02
 -6.6009164e-02   7.1386352e-02
  6.7564771e-02   2.8473686e-02
  1.9482765e-01   1.0088719e-01
 -2.6756281e-01   8.0673099e-02
 -1.4151207e-01   4.9174778e-02
 -7.1694605e-02   8.6267792e-02
 -9.8126255e-02   1.1373670e-01
  4.3038484e-02   4.5319818e-02
  7.5393260e-02   5.0828137e-02
 -5.2467868e-02   6.5871447e-02
  1.1418895e-01   5.8764279e-02
  6.6582479e-02   2.3269869e-02
 -1.8763080e-02   3.9654113e-02
 -3.0049857e-01   5.6890775e-02
  1.3564186e-01   7.2665259e-02
  3.3302936e-01   2.3092467e-02
 -1.7928450e-01   5.0516259e-02
  2.9395062e-01   1.0580890e-01
  1.8064681e-01   1.4594045e-01
  7.5177893e-02   3.2676686e-02
 -6.2268000e-02   4.7631171e-02
 -8.2070313e-02   7.2474010e-02
  6.3172662e-01   5.1062729e-02
  1.4510146e-01   1.3479356e-02
 -3.2498442e-02   3.1429309e-02
  7.4643534e-01   1.7790791e-02
 -8.4763221e-02   2.1968035e-02
  8.9858301e-02   1.2235695e-02
  2.4793111e-01   2.3896337e-02
  6.6854089e-01   5.7053506e-02
 -1.4319859e-01   3.7460029e-02
 -6.5201712e-01   4.0607449e-02
 -3.7534032e-02   8.1532434e-02
  7.7064754e-03   7.0940487e-02
 -1.2516937e-01   6.3210338e-02
  4.5113689e-01   1.3692430e-01
 -1.1536372e-01   7.1356438e-02
  1.4433730e-01   3.1713199e-02
 -2.6545620e-01   9.3237922e-02
  1.1313375e-01   4.1793089e-02
 -2.2915373e-02   5.8814171e-03
 -5.1577692e-03   4.9472976e-02
  6.1976808e-01   8.0850385e-02
  5.6042391e-01   1.7080560e-02
  2.2371002e-01   3.9259713e-02
  7.5713165e-02   1.7867166e-01
  3.2786787e-01   6.0401089e-02
  2.2003382e-01   3.2777213e-02
 -2.4515007e-01   3.0106816e-02
 -8.0965951e-02   2.8972542e-02
 -1.6787678e+00   5.6664953e-03
 -2.6786119e-01   8.0115020e-02
 -2.3775358e-01   1.0684481e-01
  2.2429341e-01   2.0505747e-02
 -7.4632056e-02   6.1472367e-02
 -4.0933564e-02   4.1996818e-02
 -3.6716902e-01   1.3873411e-02
  1.5699853e-01   5.0886314e-02
  3.3458911e-02   4.9885191e-02
  2.6065281e-01   5.1573176e-02
  1.0134412e-01   4.6448279e-02
 -5.0422840e-02   3.5106830e-02
  1.1326087e-01   1.9382799e-02
  3.0386910e-01   6.5841533e-02
 -5.2166194e-01   1.6981170e-02
  1.3628741e-01   1.1270499e-02
  2.5403997e-01   1.2325166e-02
  1.3760771e-01   2.0159252e-02
 -1.1979830e-01   5.5760380e-02
 -2.8035539e-01   1.3739333e-02
 -5.9746718e-01   2.3398886e-02
 -3.0054376e-01   3.0743651e-02
  1.8216488e-01   8.7632149e-02
  2.9439215e-02   9.0799751e-03
  2.1260960e-01   1.2444791e-01
 -7.1220964e-02   6.0970910e-02
  1.3647328e-01   2.3883877e-02
  1.2308758e-01   1.1656976e-01
  1.6778603e-02   1.4838427e-01
  6.2170479e-02   2.0890985e-02
 -2.4790899e-01   4.0601745e-02
  4.8877987e-01   8.3972059e-02
 -1.8195333e-01   6.0921285e-02
 -3.4676594e-01   2.1124192e-02
 -7.7198818e-02   4.5972701e-02
 -7.0852051e-03   1.5138907e-02
 -1.7508598e-01   6.1974932e-02
  2.4129613e-01   7.4700095e-02
  2.3725188e-01   1.0571650e-01
  3.5685081e-02   3.1379454e-02
 -9.8114662e-02   4.1586734e-02
 -2.3829013e-01   5.3820986e-02
  4.9708661e-02   5.1418450e-02
  4.1429956e-02   6.8289652e-02
  6.5987714e-02   5.0587490e-02
 -1.8478434e-01   4.5790736e-02
 -2.0443413e-01   3.7906442e-02
  4.3783545e-02   9.3125366e-02
  1.4119837e-01   6.7011952e-02
 -2.6426544e-02   2.8638886e-02
 -5.3905893e-02   6.1896220e-02
 -1.6492596e-01   1.2012747e-02
 -2.4265112e-01   3.5242788e-02
 -5.9445620e-02   2.5784299e-02
 -6.2707506e-02   9.9976942e-02
  7.4586794e-02   8.4878013e-02
  2.7536067e-01   4.7952715e-02
  3.7164986e-01   2.0674810e-02
 -3.0186778e-02   2.3078160e-02
 -1.6563301e-01   3.0220490e-02
 -2.4612287e-01   2.2578197e-02
  5.3658658e-01   2.6892586e-02
  8.0886438e-02   3.9210550e-02
  2.2528935e-02   4.8868846e-02
 -1.7943770e-01   1.2941924e-01
 -2.5191521e-02   1.0517284e-01
  1.2512767e-01   5.0686985e-02
 -4.3500331e-01   1.9180773e-02
  7.3760241e-02   2.2876453e-02
 -3.3878219e-01   3.2229912e-02
  2.1392342e-02   2.5803883e-02
 -2.2424301e-02   5.4595746e-02
  1.2856026e-01   9.2314608e-02
  4.6253931e-03   2.4109168e-02
 -2.0716310e-02   1.2844468e-02
 -3.6833489e-01   2.9234555e-02
  2.6893046e-01   8.7587550e-02
 -2.7052656e-01   5.2650213e-02
 -2.3456307e-02   1.2427606e-01
 -2.8808108e-02   7.6293290e-02
 -2.7543887e-01   3.2864779e-02
 -1.9061291e-01   3.2691721e-02
 -4.0856145e-02   4.4511814e-02
  7.8166157e-02   5.8863025e-02
  9.3415165e-03   5.0424702e-02
  9.4994105e-04   3.3794427e-03
  2.9370025e-01   4.9382403e-02
  2.4988279e-01   6.1802931e-02
  3.8954932e-02   3.4175862e-02
  7.7853173e-02   1.9576520e-02
  1.4727850e-01   2.4531050e-02
 -4.4719860e-02   2.7533688e-02
  2.5483438e-01   3.9406117e-02
  7.9218522e-02   2.7519148e-02
 -1.3243714e-01   1.4068323e-02
 -5.8140028e-02   3.1063793e-02
  3.3810653e-02   6.2612437e-02
  9.6956581e-02   5.3396452e-02
 -5.6788999e-01   9.9124968e-02
  1.5870276e-01   1.2159982e-01
 -2.4373555e-01   2.9835748e-02
 -5.4733753e-01   1.5052395e-02
 -1.4998004e-01   4.1379776e-02
  3.6954798e-02   1.3147645e-02
 -1.3265466e-02   3.4163427e-02
  2.8114468e-01   3.2000028e-02
  8.7025590e-02   3.2959275e-02
  8.1465967e-02   4.0752225e-02
 -1.4485376e-01   1.1819311e-01
  1.1574100e-01   2.5742551e-02
 -6.0014635e-02   5.4414317e-02
  1.3577902e-01   3.1086639e-02
  5.5634376e-02   2.7347749e-02
 -1.6448957e-01   7.5247973e-02
  5.5999434e-01   3.2048125e-02
  1.9880314e-01   8.2216024e-02
  7.7644742e-01   2.8046587e-02
  4.2165837e-01   5.3010341e-02
  4.0301299e-01   3.0258602e-02
 -2.3453528e-01   1.2442362e-01
  7.5076707e-02   5.9102479e-02
  3.6926661e-02   1.2631359e-02
  1.4681157e-02   5.4677304e-02
 -1.8250565e-01   5.2650105e-02
 -7.5279810e-02   7.8706509e-03
  2.2325706e-01   9.1033638e-02
 -2.3372737e-01   9.2664413e-02
  2.1632817e-02   6.4724728e-02
 -2.8695118e-01   3.4353629e-02
  5.1151270e-01   7.6482967e-02
 -1.4377993e-01   2.6216980e-02
 -2.4487968e-01   2.2164175e-02
  1.0309521e-01   9.5053859e-02
  5.0760813e-02   2.5413355e-02
 -6.8896967e-01   2.4579911e-02
  5.3991593e-02   4.3997101e-02
 -3.2284069e-01   1.6064303e-02
 -2.4116114e-01   1.0460652e-02
  3.1751883e-01   5.8662120e-02
  3.1482011e-02   3.6883596e-02
 -2.8375676e-02   1.0990863e-01
 -1.3564669e-01   4.8625059e-02
  1.2071761e+00   4.2620101e-03
 -1.7718190e-01   1.5319668e-02
 -2.4670403e-02   6.1174896e-02
 -2.2337060e-01   2.4078002e-02
 -5.8521102e-03   3.7787117e-02
 -2.4488570e-02   1.0448562e-02
  5.3051251e-01   3.6637731e-02
 -4.9461681e-02   6.3970119e-02
  4.3757074e-04   4.4599406e-02
 -1.0443909e-01   3.1410586e-02
 -1.2200657e-01   3.7770726e-02
 -5.9683239e-01   2.0876603e-02
 -8.4030386e-03   1.0123282e-02
 -2.6971951e-01   5.6807891e-02
 -1.0949935e-01   4.9953733e-02
  2.8181264e-01   3.2811940e-02
 -9.5707230e-02   3.3893313e-02
  9.3677424e-02   5.0537679e-02
 -8.6305570e-03   9.9244520e-02
  2.2884181e-02   5.6057539e-02
 -1.4806522e-01   1.1179981e-01
  6.5593652e-02   1.6219258e-02
 -2.1507330e-01   1.0726618e-01
 -1.0465571e-01   8.2939550e-02
  2.1669648e-03   9.5130004e-02
 -6.0047101e-02   1.3951887e-02
  5.3574421e-02   5.0023530e-02
 -3.6334246e-02   3.3679791e-02
  1.8990517e-01   6.7415789e-02
 -1.5553312e-01   3.0990241e-02
 -7.1141444e-02   4.4296231e-02
  1.7557925e-01   8.8570036e-02
  1.2524758e-01   7.8280859e-02
 -5.7156944e-01   3.9040893e-02
  2.3378175e-02   2.5240617e-02
 -3.0961552e-01   8.2473814e-02
 -4.3669991e-02   9.8313540e-02
  1.6286007e-01   3.9977465e-02
  6.3823313e-02   7.2856247e-02
 -1.1848133e-02   4.6422280e-02
  2.3183568e-01   2.8043138e-02
  2.0639703e-01   6.3006401e-02
  6.8532065e-02   4.9742851e-03
 -4.1718605e-01   8.7337516e-02
  5.4124916e-01   2.0750074e-02
  2.9957938e-01   5.2350715e-02
  3.3734730e-01   2.7208837e-02
 -5.6450060e-03   3.0969420e-02
 -4.5129019e-01   2.0541349e-02
  1.5381342e-01   2.1344559e-02
 -1.2902512e-01   9.1711670e-02
 -1.2166855e-02   3.4892801e-02
 -1.4317541e-01   7.3299669e-02
 -4.2082638e-02   2.6495092e-02
 -3.1183913e-01   5.2326955e-02
  2.8465347e-02   6.0588084e-02
 -5.5144554e-01   1.8912269e-02
 -2.7586359e-01   5.9069589e-02
  2.9070824e-02   7.6593608e-03
  1.6866010e-01   1.7408567e-02
 -1.0312206e+00   3.9272215e-03
  4.6227034e-02   4.3063030e-02
  1.2802349e-01   6.9791585e-02
 -3.3384299e-01   1.7355680e-02
  3.4168851e-01   3.8328633e-02
 -1.0820976e-01   1.3275616e-01
 -3.6707366e-01   3.9029945e-02
  5.4686274e-02   1.1184409e-01
 -3.0995267e-03   1.7417802e-02
 -9.1622755e-02   3.3715039e-02
  8.1484824e-02   6.5399170e-02
 -1.0559499e-01   5.4025076e-02
 -2.2542191e-01   6.0018595e-02
  8.9804292e-02   3.6807220e-02
 -3.0930033e-02   4.1751560e-02
 -2.0688833e-01   1.0179657e-01
  6.3869578e-01   6.2236611e-02
  4.5799773e-02   2.3785789e-02
 -1.4199872e-01   1.1765906e-01
 -7.3354892e-02   6.8999611e-02
  1.6446792e-02   7.2567537e-02
  7.9361401e-02   8.6139180e-02
 -5.5447545e-02   6.2653653e-02
  1.2291086e+00   2.0895600e-02
  1.4013804e-01   1.3401386e-02
  9.9364668e-01   2.0488819e-02
 -1.1322333e-01   3.4408502e-02
 -2.1488804e-01   2.8091401e-02
 -8.2267113e-02   8.2447574e-02
  2.0859489e-01   4.8093792e-02
  1.9182378e-01   5.2978184e-02
  3.4634802e-01   2.5140109e-02
 -4.8251182e-02   6.7146100e-02
 -3.1314306e-02   1.2471346e-02
 -2.4287812e-01   1.1788508e-02
  7.0929337e-01   3.6811899e-02
  1.5567660e-01   7.8975536e-02
 -1.4281444e-01   9.2789255e-02
  1.2203840e-01   4.6958894e-02
  1.2440791e-01   4.7909256e-02
  1.1745317e-01   8.0037259e-02
  1.6374992e-01   5.8296181e-02
  3.2444748e-01   2.9582277e-02
  9.6815176e-02   7.0449084e-02
 -1.7003518e-01   1.4955441e-02
 -1.0910565e-01   4.0733516e-02
  2.7938065e-01   9.2247754e-02
 -5.2840960e-01   8.2526997e-02
 -3.8126177e-01   1.9899929e-02
  9.1825508e-02   1.5368710e-02
  1.2315299e-01   3.8340475e-02
 -3.6908574e-02   2.5941338e-02
  2.6402143e-01   8.8817976e-02
  1.0367819e-01   5.5352882e-02
 -1.1899088e-01   7.9962447e-02
 -4.8428722e-02   1.5417038e-02
  1.3323597e-02   7.0925064e-02
  1.4508665e-02   1.2266322e-01
  6.9316693e-02   2.3093913e-02
  6.4345770e-02   6.0565922e-02
  1.4353989e-01   4.3749299e-02
 -8.9240074e-02   5.1303364e-02
 -1.2851515e-01   9.5060684e-02
  4.1891310e-01   8.7168768e-02
  1.1844189e-01   8.7181501e-02
 -7.6340370e-02   4.0348392e-02
 -1.3969098e+00   6.3919579e-03
 -1.5467547e-01   3.9393160e-02
  3.8857054e-02   5.0156936e-02
  2.1874560e-01   5.4137215e-02
  9.2175007e-01   1.1470229e-03
  6.2235013e-02   5.0181516e-02
  1.4920926e-02   6.3820936e-02
 -2.9650187e-01   5.6303594e-02
  2.0688172e-01   7.7346288e-02
  4.6062866e-01   1.8738605e-02
 -5.7244420e-02   6.0259324e-02
  1.4507338e-01   3.7480388e-02
 -2.5463700e-02   2.9120689e-02
  7.0380247e-01   4.5006607e-02
  6.1933775e-02   6.4821258e-02
 -2.4838662e-01   6.8369627e-02
 -9.8585943e-04   3.9861087e-02
  1.0703872e-01   6.5024085e-02
  6.4909466e-02   3.4875493e-02
  5.4985160e-01   2.1739475e-02
  2.9479450e-01   5.6408376e-02
  2.0681582e-01   3.6613449e-02
 -3.2932706e-02   2.6362047e-02
 -2.8068793e-01   5.9584197e-02
 -6.1648625e-01   2.9855166e-02
 -6.0971338e-01   8.7869028e-03
  2.5843713e-01   1.3606788e-01
  1.2724759e-02   5.6611739e-02
 -1.7212515e-01   1.7962238e-02
  2.5176153e-01   1.1576740e-01
 -2.3956788e-01   6.0493458e-02
 -2.6042251e-02   2.5637319e-02
 -1.8322906e-01   7.1714580e-02
  7.0293494e-02   6.8203129e-02
 -1.4765099e-01   7.9214081e-02
  1.1154783e-02   4.3161020e-02
  5.3574227e-02   1.2059464e-01
  1.3349022e-01   5.3151123e-02
 -2.1524419e-01   6.7469001e-02
  1.7786479e-01   1.3307677e-01
 -5.6476891e-01   1.0891554e-02
 -3.9931470e-01   8.7402247e-02
 -8.4830493e-02   2.6091596e-04
 -2.9663634e-01   5.9416849e-04
  8.9046687e-01   2.2097053e-03
 -1.7718036e-01   2.9732002e-04
  2.4873856e-01   5.9819920e-04
  5.6735885e-01   6.5179763e-04
 -7.1344244e-01   3.4871015e-03
  1.1732203e+00   4.9991352e-03
  1.4301716e-02   3.1370033e-02
 -1.5280449e-01   5.2789296e-03
  6.4169466e-01   9.3397880e-03
  1.7549717e-03   3.6750391e-02
 -7.5481635e-01   1.7665811e-02
 -7.4534261e-01   3.6286348e-03
 -8.7446344e-01   1.3032758e-02
  3.1093803e-01   1.6491065e-02
 -6.0608369e-01   1.1954998e-02
 -2.3690826e-01   2.3174098e-02
  9.9771738e-02   6.6067614e-02
  5.4476608e-02   1.5677908e-02
 -4.5240512e-01   3.0802160e-03
 -2.8158078e-01   1.9271986e-03
  1.8464437e-01   6.2827811e-02
 -1.5695028e-01   1.1713974e-02
 -8.6015254e-02   4.1062653e-02
 -8.7781986e-03   1.2622572e-02
  1.6351522e+00   4.6169329e-02
 -6.4622414e-01   2.8285065e-03
 -4.9145859e-01   2.9887347e-03
 -7.0255095e-01   2.7171850e-02
 -9.3798809e-02   4.0930200e-02
  1.5392561e-01   6.3810639e-02
  8.3395272e-02   2.3639511e-02
  4.2065895e-01   1.7218336e-02
 -6.0422879e-01   8.4230965e-03
  4.9334124e-01   1.6210072e-02
  8.9029960e-02   4.5886144e-02
  4.8165757e-02   1.9889969e-02
  6.6016752e-01   8.7941196e-03
 -1.5972851e-01   5.8782313e-02
 -9.0080686e-03   4.2607464e-02
 -2.4702730e-02   1.3528457e-02
 -8.7238526e-01   2.3372581e-03
  1.9883987e+00   1.1506072e-03
  1.5561686e+00   2.4827202e-03
  2.1721864e+00   9.8438119e-04
  2.0053160e-01   2.5750133e-03
 -4.3480087e-02   5.7762875e-03
  5.5342484e-02   1.5293637e-02
  5.5672482e-02   4.2644478e-02
 -9.9009313e-02   5.0911605e-02
 -1.4122953e-01   9.3655378e-02
 -1.0577760e-01   4.4807617e-02
 -4.0785792e-01   3.6114898e-02
  6.9911785e-02   6.7327261e-02
 -1.4770475e-01   3.0284723e-02
 -1.2808391e-01   6.8786114e-02
  1.1792982e-02   2.9797686e-02
  5.7629794e-03   2.1492468e-02
 -2.0622665e-01   3.0668389e-02
 -1.9382279e-01   6.4956345e-02
 -1.3325907e-01   3.7283383e-02
  1.2357084e-02   2.7933095e-02
  1.2022893e+00   1.3912074e-02
  7.3638514e-02   1.4215697e-02
  1.5286691e-01   1.8511925e-02
  6.2502518e-02   4.0265881e-02
 -8.8153347e-02   4.5990080e-02
  1.3780337e-02   3.0526407e-02
 -1.4375350e-01   2.9271852e-02
 -2.7265725e-01   3.5272487e-02
  7.2761267e-02   1.2460553e-01
  1.7963603e-01   4.0061597e-02
 -1.0088153e-02   6.1720643e-02
 -1.1474562e-02   2.6357783e-02
  8.1243731e-02   3.6440991e-02
  6.7012440e-03   3.3963677e-02
 -1.7199218e-01   7.1496777e-02
  3.3822164e-01   6.8194047e-02
  4.4536784e-02   5.2489791e-02
  1.3962883e-01   3.7750408e-02
 -2.1543606e-01   3.0433368e-02
  3.8564578e-01   9.3617834e-02
  2.1375291e-01   6.1023910e-02
 -1.1736011e-02   1.5205120e-02
  1.5336984e-01   8.2363859e-03
 -1.7243445e-02   2.2129809e-02
  5.2688450e-01   7.0567830e-03
  3.0200973e-01   1.9078383e-02
 -6.1693233e-02   2.1451890e-02
 -2.0505784e-03   4.6443328e-02
 -3.4518152e-01   5.4093406e-02
 -4.5662113e-02   5.2908823e-02
 -3.8900599e-02   3.4177225e-02
 -8.7713104e-01   1.1271485e-02
  2.4594755e-01   4.9627949e-02
  5.0649047e-01   4.4701412e-02
 -3.4388936e-01   2.0269634e-02
 -1.9791573e-01   1.6796924e-01
 -1.1576584e-01   3.1413544e-02
  5.1112193e-01   7.0625376e-03
  1.6127695e-01   4.6421811e-02
  9.4484046e-02   2.3176745e-02
 -5.7224862e-02   4.2234201e-02
 -2.3015648e-02   1.8022100e-02
  2.2277400e-01   6.7163043e-02
 -1.5141506e-01   1.0243749e-01
  3.0521283e-01   6.4427003e-02
  6.8732309e-01   6.7910947e-02
 -3.7787747e-01   9.1633625e-02
  7.5063333e-02   4.6865836e-02
 -6.7743731e-01   2.5981050e-02
  1.2693234e-01   1.1052141e-01
 -1.2905492e-01   4.7856510e-02
  3.4169279e-02   1.9059008e-01
 -1.3562642e-03   1.1069470e-02
 -1.6274726e-02   4.7925774e-02
  1.5594904e-01   4.6567027e-02
  2.7201435e-01   6.7123212e-02
 -1.9454281e-01   1.4247416e-01
 -2.2217052e-01   2.3397300e-02
 -2.2449890e-01   2.6463052e-02
 -1.2264249e-01   1.0010766e-01
  1.3277256e-01   4.7080025e-02
 -1.8225688e-01   8.2196362e-02
 -3.3538112e-01   9.1918111e-02
  6.2976968e-01   1.4171180e-02
 -1.1997691e+00   1.6044902e-02
 -1.2193369e-01   3.3442173e-02
 -1.9178765e-01   3.5551775e-02
  5.6799310e-03   1.0908801e-02
  3.7287571e-02   8.4578328e-02
  2.7447996e-01   5.8320843e-02
 -1.4278077e-01   3.1341314e-02
 -5.3398186e-01   3.1960804e-02
 -1.0522094e-01   6.4191476e-02
  5.9585078e-03   5.3529147e-02
 -9.5756851e-02   3.0237833e-02
  2.7325720e-01   7.3112026e-02
  1.6421849e-01   3.8848184e-02
 -2.2218782e-01   5.2952044e-02
  4.6793073e-01   8.1259869e-02
 -1.9527519e-01   2.6948771e-02
  2.4167971e-01   7.0860326e-02
 -1.8063861e-01   4.6190552e-02
  4.3668967e-02   7.5688727e-02
 -4.7191687e-02   3.6841191e-02
  9.2225082e-02   2.7703373e-02
  2.3630892e-01   4.1486997e-02
  1.0314445e-02   5.8727119e-02
 -1.6756378e-01   2.2975393e-02
  3.9985698e-02   3.7671655e-02
 -3.6444101e-01   7.5163669e-03
 -2.3869619e-02   6.4507172e-02
  2.9129794e-01   3.2459449e-02
  6.4792760e-02   1.3704902e-02
  1.2511617e-01   5.5497963e-02
 -1.4244890e-01   4.2053271e-02
 -9.0284340e-02   4.0837172e-02
  2.0153776e-01   6.0306966e-02
  2.3524839e-02   6.9999956e-02
  2.0460938e-01   1.1020979e-01
  6.0278535e-02   5.3446792e-02
  1.7714699e-01   5.9709758e-02
 -3.2871403e-02   5.2763995e-02
  3.9714910e-02   3.6970198e-02
  7.2673790e-02   6.9353126e-02
  2.1074811e-02   7.9827219e-02
  6.0759891e-02   3.2644223e-02
  4.2640081e-01   4.1347872e-02
  8.3768867e-02   4.6937261e-02
 -2.9956710e-01   1.6566953e-02
  1.0779811e-01   5.5595778e-02
  4.5516971e-02   4.1165575e-02
  1.2377046e-01   1.7952820e-02
 -1.6384210e-01   5.0806776e-02
 -4.0594470e-02   6.7594230e-02
  6.1931934e-02   5.7560232e-02
 -2.3553000e-01   1.2301295e-01
 -1.3094882e-02   7.6332269e-03
  3.9961871e-02   4.7555584e-02
 -1.9665349e-01   6.8199128e-02
 -7.9048008e-01   2.4427528e-02
 -7.2359359e-03   9.6922256e-02
  2.4606860e-01   8.3871938e-02
 -1.1246572e-01   5.6241456e-02
  2.9747216e-03   3.6890779e-02
  2.0514382e-01   7.9699494e-02
 -3.7234378e-01   4.4549417e-02
 -5.0710924e-02   9.1411687e-02
  7.7594690e-02   4.5490805e-02
  1.3170740e-01   9.5718294e-02
 -2.7661249e-01   2.4041986e-02
  2.1379305e-01   9.7893283e-02
 -1.9604689e-01   2.1535313e-02
  3.5660643e-02   1.6581427e-02
  2.4658452e-01   7.4924827e-02
 -1.1506809e-01   8.8941783e-02
 -6.3259393e-02   6.3645057e-02
 -1.7398633e-01   1.0799947e-01
 -1.8560441e-01   5.4461062e-02
 -3.3026049e-01   1.5412439e-01
  3.1859124e-01   1.7305648e-02
  1.5575299e+00   1.8588295e-03
 -1.1901605e-01   7.3737726e-02
 -6.9899866e-03   1.7643277e-02
  9.6380669e-01   2.3916051e-02
  3.6013338e-01   4.6671197e-02
  1.0576006e-01   2.4129940e-02
 -9.1230057e-02   7.7900015e-02
 -4.0727046e-01   2.0763639e-02
 -1.6119103e-01   1.2322829e-02
  1.2946203e-01   3.7996564e-02
  2.3408808e-01   1.2672860e-02
 -4.8634231e-02   1.9866403e-02
 -7.2829716e-02   9.5656384e-03
  1.6373962e-01   9.6366018e-02
  1.2866424e-01   8.3623976e-02
  1.8223846e-01   3.9678890e-02
  5.4072317e-02   2.6793040e-02
 -3.9178852e-02   5.4267339e-02
 -3.6979832e-02   7.9061605e-02
 -4.1551834e-01   3.1878430e-02