 -1.5758774e+00   2.5864415e-02
  4.6055299e-01   1.2676510e-02
  5.7287812e-01   5.1594708e-02
  2.0187180e-01   2.8798876e-02
  4.5209709e-01   9.6281581e-03
 -5.7795465e-02   1.1122212e-01
 -2.4682565e-01   1.4863345e-01
  1.5631777e+00   1.5349973e-02
  4.3019927e-01   7.4899271e-02
 -1.1310111e+00   1.6881076e-01
  3.3616569e-02   1.3011838e-01
 -2.9893583e-01   3.7436705e-02
 -3.5496819e-01   3.6708627e-02
 -2.0455031e-01   1.3698088e-01
  7.0133276e-02   4.8452996e-02
 -1.0464224e-01   1.2006051e-01
 -1.0519792e+00   5.9456173e-02
 -1.4115641e-01   7.1651027e-02
 -3.5051385e-01   4.5314725e-02
 -2.5459865e-01   1.9250272e-01
  1.5829218e-03   1.3469246e-01
  2.4598099e-02   1.4406401e-01
 -1.8639968e-01   1.3650410e-01
  2.3473285e-01   6.6653095e-02
  1.6760589e-01   1.3948908e-01
 -5.1588869e-01   2.1970990e-01
  2.9825872e-01   1.8237935e-01
 -8.4817387e-02   8.4123924e-02
  4.4232088e-01   1.0556623e-01
 -3.8494945e-01   9.8527990e-02
 -5.8786815e-01   5.8756784e-02
  2.3276244e-01   4.3408472e-02
  2.3715051e-01   2.4917582e-02
 -1.4186309e-01   3.6034536e-02
 -6.0089779e-01   1.5914340e-02
 -2.1781887e-01   1.6469029e-01
  1.9498891e+00   1.9497169e-02
 -6.0987240e-01   7.4383490e-02
 -1.4191404e-01   1.5071285e-01
  2.6104859e-01   1.3778758e-01
  6.8115699e-01   5.7719987e-02
 -2.2787647e-01   1.0085861e-01
  5.7872903e-01   7.1662262e-02
  4.9871337e-01   1.0151104e-01
 -1.6147633e-01   9.7054645e-02
  5.0007731e-01   1.1761782e-01
 -1.7044771e-01   4.0173508e-02
  1.9856016e-01   5.5890609e-02
  6.3642526e-01   1.3553126e-01
  6.5574640e-01   6.3802570e-02
 -6.2192911e-03   1.4154816e-01
  1.0078263e+00   9.5992677e-02
 -1.5370112e-02   6.2819026e-02
  2.1647376e-01   9.6056812e-02
  1.2010206e+00   2.9708490e-02
  1.0491471e-01   4.0034700e-02
 -3.1330091e-01   1.4954798e-01
  6.2251794e-01   6.5399960e-02
 -1.8771583e-01   3.4845546e-02
 -1.0046279e-01   1.9218211e-01
 -1.4088431e-01   2.4167882e-02
 -7.6369019e-03   2.2513891e-02
  5.3404797e-02   9.1694444e-03
  8.4637439e-01   2.7811918e-02
  6.8923593e-01   4.3826695e-03
 -1.3811533e-01   9.1593847e-02
 -1.8756124e-01   4.5864593e-02
  7.3331934e-01   4.5588225e-02
 -7.1974492e-01   2.1760121e-02
 -1.5509400e-01   1.3752560e-01
 -8.3959204e-01   1.6095962e-01
 -3.6808246e-01   1.9763378e-02
  6.7875497e-02   1.9976532e-01
 -1.0600107e-01   9.7320139e-02
  2.8713299e-03   1.0574932e-01
 -1.5917549e+00   4.4465851e-02
  2.3676395e-01   4.5523379e-02
  1.8965939e-01   3.5271410e-02
  1.0644399e-01   1.0763340e-01
  3.0830026e-01   7.5158179e-02
  8.2631379e-02   1.4746873e-01
 -1.3399130e-01   1.2990215e-01
  3.9148849e-01   6.2366202e-02
  7.2095293e-01   1.3040140e-01
  2.7072576e-01   1.1237390e-01
  3.7416780e-01   5.9162926e-02
 -5.7506657e-01   3.3921644e-02
 -4.5550819e-03   1.2543614e-01
  6.1736625e-01   1.5823433e-01
 -1.8844841e-01   8.6278588e-02
  3.5418987e-01   9.7686201e-02
  1.8645236e-01   6.7871489e-02
  1.3533832e-01   6.9087163e-02
  6.3521296e-01   1.2445492e-01
  5.5844158e-01   1.2904297e-02
  1.2155078e-01   1.1628997e-01
  6.6595353e-02   9.0063184e-02
  8.5176563e-01   1.0173788e-01
 -2.0385708e-01   1.1344073e-01
  7.5065750e-01   1.2513821e-01
  5.6716454e-01   4.1398626e-02
 -2.1269371e-01   2.6291560e-02
 -6.7962807e-01   1.2858839e-01
  9.1920272e-02   8.5531473e-02
 -5.7491604e-02   2.4378462e-02
  2.2686090e-01   1.3030289e-01
 -3.8062304e-01   3.5922077e-02
 -5.3825217e-01   5.8653738e-02
 -2.8658632e-02   1.7225166e-01
  6.3296519e-02   5.5243045e-02
  3.8551423e-01   2.9051909e-01
 -8.7378338e-02   7.5665161e-02
 -7.3481023e-02   9.4725750e-02
 -2.0744792e-01   3.1311382e-02
 -4.5023572e-01   1.6758634e-01
 -3.4550134e-02   1.2773454e-01
  2.1180314e-01   7.7182047e-02
  1.6316670e-01   1.0334140e-01
  2.2550358e-01   6.3939065e-02
 -9.0493970e-02   1.1266778e-01
 -9.2008168e-01   3.0417105e-02
 -7.1642947e-01   6.7136936e-02
 -2.7011970e-02   2.3067512e-02
 -4.1932517e-01   7.7367760e-02
 -1.0948552e+00   9.5413551e-03
  3.5446838e-01   8.9486636e-02
 -2.7389437e-01   1.0385967e-01
 -7.8791745e-02   1.2221904e-01
 -4.9827471e-01   7.1900100e-02
 -2.8079322e-01   8.6549900e-02
 -2.0795497e-01   4.3371666e-02
 -6.7927825e-01   1.0388236e-01
  2.9613608e-01   1.0180535e-01
  7.1407668e-02   1.7050168e-01
 -4.6796280e-01   1.4935176e-01
  9.7121045e-02   1.5451036e-01
 -3.3421580e-02   1.1062088e-02
  2.4622692e-01   1.3721697e-01
  1.4149014e+00   2.4634881e-02
  6.8924151e-02   1.9614422e-01
 -2.9103431e-01   2.0330340e-01
 -7.0728767e-01   2.6803788e-02
 -4.2632341e-01   9.6397646e-02
  3.5793149e-01   1.2033912e-01
  3.3357847e+00   8.3821826e-03
 -2.0816059e-01   2.0471986e-01
  1.4589162e-01   2.2396652e-01
  7.1267568e-02   1.3826343e-01
 -2.2260115e-01   9.9533759e-02
  4.4079885e-01   1.4672843e-01
 -2.5456915e-02   2.5918534e-02
 -7.8065765e-01   4.7600988e-02
 -4.0685120e-01   7.1989194e-02
  2.7873093e-01   5.6134285e-03
  9.9389362e-01   1.1828572e-02
  6.3970252e-03   1.0755170e-01
 -1.6821791e-01   9.6379496e-02
  1.6339859e-01   9.2030533e-02
 -3.4216213e-01   4.0405475e-02
 -5.6297868e-01   1.9043389e-01
  5.6498677e-01   6.2839404e-02
 -4.9156398e-01   8.8881500e-02
  1.9123290e-01   1.9876121e-01
  2.2075985e-01   7.3015563e-02
 -1.4504710e-01   7.6118737e-02
 -1.0410635e+00   2.1666454e-02
  3.0688712e-01   6.8123922e-02
  3.8196850e-01   1.1971173e-01
  1.2662174e+00   2.5078190e-02
 -5.4495387e-02   1.9637357e-01
  1.0421485e+00   3.2562990e-02
  5.7351810e-01   6.9085240e-02
 -3.0042818e-01   4.5522340e-02
 -3.6083624e-01   1.2416333e-01
  5.0716442e-01   7.5432129e-02
  5.6907469e-03   1.4087640e-01
 -1.2967324e+00   2.4431778e-02
  9.0430993e-01   9.8181948e-02
  9.9782750e-02   1.2646349e-01
  5.1555854e-01   7.9600319e-02
  8.0484885e-01   1.4960165e-01
  1.8793243e-01   6.2925726e-02
 -5.6708223e-01   3.3130195e-02
  9.3373626e-02   1.3939765e-01
 -1.0629443e-01   1.1098556e-02
 -1.1847525e+00   3.9993908e-02
 -2.4732487e-01   2.4936625e-01
  5.5290926e-01   6.8530645e-03
 -5.2284497e-01   8.4705763e-02
  9.2683727e-01   9.2752054e-02
  5.3405110e-02   9.5787540e-02
 -4.5903286e-01   5.5766635e-02
 -1.2336293e+00   1.3701982e-02
  4.7548318e-01   1.8229684e-01
  2.2597732e-01   1.2144019e-01
 -1.3993646e-02   3.7338194e-02
 -2.4247181e-01   7.7085167e-02
 -5.1374998e-02   9.3598500e-02
 -8.0104363e-01   1.0614649e-01
  2.5037277e-01   4.0727764e-02
  3.3163479e-01   1.5839994e-01
 -9.1351658e-01   7.5188085e-02
 -1.9647518e-01   3.7192255e-02
 -1.2092856e-01   1.1096200e-01
 -1.0050788e-01   1.3381158e-01
  1.9536877e-01   9.1414951e-02
  9.9132615e-01   1.2703976e-01
  7.6936126e-01   2.0398901e-01
  2.3610806e-01   9.5427267e-02
  5.3000689e-01   1.0611499e-01
  8.2326233e-02   4.5846522e-02
 -2.5695404e-01   5.5888601e-02
  2.0342830e-01   4.8334539e-02
  8.0363996e-02   4.1309759e-02
  8.7841427e-01   1.1990199e-02
  8.1855625e-01   6.3059464e-02
 -2.7758595e-01   1.3184822e-01
 -6.3686842e-01   5.4959673e-02
  3.4830034e-01   1.3783531e-01
  4.9433464e-01   3.5078820e-02
  2.8715408e-01   3.8628757e-02
 -3.6196578e-01   9.4528921e-02
 -3.5374483e-01   5.3775460e-02
 -4.1196287e-01   5.1707238e-02
  1.6996317e-01   1.1737838e-01
 -1.2406247e-01   1.1286312e-01
  2.7297521e-01   1.4717831e-01
  2.4176724e-01   4.0501244e-02
  8.5779004e-02   2.1333650e-01
  6.5481079e-01   2.2712165e-02
 -2.4517815e-01   8.7256625e-02
  4.9690852e-01   1.9728813e-01
  1.5885346e-01   6.9720782e-02
  3.9134104e-02   1.0513846e-01
 -6.4980306e-02   1.1513449e-01
 -3.6981401e-01   9.7004957e-02
 -1.6348693e-01   1.9530501e-02
 -1.7506909e-01   4.3395896e-02
  7.1378767e-02   8.5519589e-02
 -5.0525552e-01   2.0635554e-01
  1.3688847e-02   5.7471814e-03
  1.0285869e+00   2.5411029e-03
  8.0622911e-01   2.3406211e-03
 -6.1774284e-01   5.7564867e-03
  1.1660179e-02   8.2457822e-04
 -4.7851968e-01   3.4458552e-02
  1.4997382e-02   2.6346443e-02
 -1.0088767e-01   2.0939583e-02
 -4.5654652e-01   3.7184615e-02
  3.2152525e-01   1.1431835e-02
  1.0915178e-01   4.8329610e-02
 -1.2341472e+00   2.0166058e-02
 -1.2567688e+00   3.0848956e-02
 -2.0878299e-01   2.3370109e-02
 -2.6469398e-01   1.2696083e-02
  1.7773040e-01   5.7450991e-02
 -2.1529505e-01   1.9088972e-02
  9.0655857e-01   1.4310887e-02
  1.6520934e-01   4.4790067e-02
 -2.3554385e+00   1.7990520e-02
 -2.5882125e-01   2.9339774e-02
  4.9053852e-02   2.4156403e-02
 -1.4243326e-01   4.6028033e-02
 -3.0747643e-02   5.5793472e-02
 -3.8151389e-01   3.8428165e-02
 -1.0750153e-01   8.4905133e-02
  8.5004404e-02   4.8504524e-02
  8.4467775e-01   1.1948032e-01
  9.4793394e-02   1.3611938e-01
  2.8394192e-01   8.6806580e-02
  2.7200630e+00   3.5103019e-02
  3.1788652e-03   1.6093593e-02
 -5.5950272e-01   1.9226033e-02
  1.3251396e+00   1.9176772e-02
 -1.4829400e-01   3.7774451e-03
 -5.0407857e-01   3.4024224e-02
  6.3263285e-01   1.4647785e-01
 -4.9503364e-02   1.5885258e-01
 -1.1740878e+00   2.3314532e-02
 -1.2653320e+00   6.4231917e-02
  9.4973862e-02   7.2814681e-02
  1.2316246e-01   1.2029190e-01
 -1.1700429e-01   9.6943498e-02
 -3.5443809e-02   1.2717061e-01
 -5.4612643e-01   1.1273447e-01
 -1.0238708e+00   6.7286916e-02
 -6.2626261e-01   1.7113045e-01
 -7.3091382e-01   1.8582250e-01
 -1.2067676e+00   2.5729731e-01
  1.6521091e+00   1.3971952e-02
 -2.9259047e-01   1.9849460e-01
  1.2576382e-01   5.1511705e-02
 -1.6922401e+00   4.1551944e-02
  2.2182159e-01   1.4872989e-01
 -3.9000511e-01   8.9872628e-02
  1.2449500e-01   1.0394436e-01
  3.2598713e-01   1.0477135e-01
  8.8394515e-02   1.5497886e-01
  3.1607541e-01   1.0918341e-01
 -2.1647966e-01   6.2481105e-02
  4.1268635e-01   2.7358726e-02
  4.5907354e-01   2.1057896e-02
 -1.7725652e-01   2.7055299e-02
 -4.4649166e-01   3.5751671e-02
 -8.8056020e-02   8.1014885e-03
  7.3654093e-02   7.7403829e-02
 -7.1790382e-02   1.4165236e-01
 -3.6555415e-01   4.5872115e-02
 -6.8329173e-01   8.7731056e-02
  9.3850061e-02   1.4799105e-01
  6.1794132e-01   1.4160933e-01
  3.3643502e-01   2.9866794e-02
  4.8273307e-01   8.2065403e-02
 -5.0861031e-01   1.0148584e-01
 -8.1084490e-02   3.9001890e-02
  1.2832773e-01   1.2163637e-01
 -1.0685752e-01   4.6987351e-02
 -1.6534215e-01   1.8571216e-01
  4.1237369e-01   2.5127435e-01
  5.1900423e-01   8.4460385e-02
  5.5370323e-02   1.5265159e-01
 -6.8400210e-01   1.5236585e-01
  3.3908457e-02   7.6531082e-02
  2.3981336e-01   5.6921795e-02
  5.2146599e-02   1.2261919e-01
  1.0739205e-01   1.0548391e-01
 -4.4911897e-01   2.2349229e-01
 -1.4214998e-01   6.0960907e-02
 -9.1946852e-01   1.6644514e-01
 -1.0147412e+00   6.2052988e-02
 -2.6438364e-01   5.0524186e-02
 -3.5008407e-01   1.3762075e-01
 -1.5819050e-01   7.8251220e-02
  3.6266333e-01   6.6641666e-02
  1.1449709e+00   3.3126254e-02
 -1.0756621e+00   5.2978586e-02
  1.2967235e-01   8.4193289e-02
  1.0302605e-01   2.2889163e-01
  3.9774027e-02   9.8021023e-02
  3.0525906e-02   2.1494617e-01
 -1.9395211e-01   8.8889062e-02
 -7.2369909e-01   1.2387159e-02
  2.3207137e-01   9.8948345e-02
  1.2775570e-01   8.9880891e-02
 -1.5375796e-01   7.5043350e-02
 -5.4356134e-01   7.3772728e-02
 -7.1245378e-01   2.4578545e-02
 -2.3112580e-02   8.1919111e-02
 -3.6854666e-01   5.9453361e-02
  2.7537283e-01   1.2421410e-01
  7.4109006e-01   5.9489541e-02
  3.4624180e-01   9.1154739e-02
  6.2282556e-01   4.0927816e-02
  7.2612381e-01   9.7703904e-02
  1.5269788e-01   5.4388858e-02
  7.7247280e-01   2.5357798e-02
  2.1553500e-02   6.8876356e-02
  3.2661095e-01   7.6653093e-02
  1.3974537e-01   1.8480837e-01
  2.7573717e-01   1.1238090e-01
  1.0053524e+00   3.3186357e-02
 -4.8967430e-01   2.9635971e-02
  3.3816311e-01   3.3663381e-02
  7.7533615e-01   6.2798209e-02
  1.5437414e-01   3.9174012e-03
 -2.4558163e-01   8.0542520e-02
 -2.6721409e-01   9.7058661e-02
  2.8073403e-01   5.8897469e-02
  5.6525385e-01   2.1676736e-01
 -9.8331243e-01   3.9980050e-02
 -5.7738650e-01   2.3772698e-02
 -2.7216941e-01   3.6869463e-02
 -5.3098488e-01   5.4468099e-02
 -7.1676886e-01   1.4416239e-01
  1.3798276e-01   1.1241101e-01
 -9.3167841e-01   7.6555274e-02
 -2.5379074e+00   2.7845275e-02
 -3.1504995e-01   1.4193968e-01
  1.0388275e-01   6.3089855e-02
  5.7832253e-01   6.0746167e-02
  6.8776691e-01   1.6660599e-02
 -1.0564888e+00   8.2825080e-02
  1.3271626e+00   3.2347240e-02
  4.2880064e-01   4.4743381e-02
  4.7467455e-02   1.1155854e-01
  6.2909400e-01   1.7684335e-02
 -2.7313221e-01   1.3317597e-01
 -3.0311456e-01   3.0286845e-02
  6.4074504e-01   2.7720460e-01
  2.5224710e-01   1.9447844e-01
 -1.2426482e-02   5.3895283e-02
 -1.8136282e-01   1.0860864e-01
 -8.5023083e-03   3.0799989e-02
  3.2204726e-01   1.3087675e-01
 -5.7427424e-01   2.7161498e-02
 -7.3170239e-01   6.9793992e-02
 -1.0152168e+00   5.2761506e-02
 -3.2145002e-01   4.4102233e-02
 -3.1279927e-01   1.7403857e-01
  3.3190107e-01   1.0433628e-01
  1.1374230e-01   1.1568935e-01
  2.3469651e-01   1.7940380e-01
 -1.5667500e-01   1.4072986e-01
  2.1164486e-01   1.7692997e-01
  7.8223634e-01   3.3523716e-02
  5.2082758e-02   4.6783797e-02
 -1.1147201e-01   2.8561477e-02
 -5.1115507e-01   1.4370012e-01
  2.5799206e-01   1.2672572e-01
  1.9317487e-01   7.2217375e-02
  4.5631954e-01   1.4334945e-01
 -1.8827061e-01   6.6345014e-02
  5.0384239e-03   6.4146534e-02
  4.1758949e-01   2.0071489e-01
  3.1660730e-01   1.8662074e-01
  7.0279598e-02   6.7927212e-02
 -4.7749158e-02   7.0628703e-02
  3.5030568e-01   9.9845730e-02
  6.8712348e-01   1.7260058e-01
  3.2712251e-01   6.0088448e-02
 -3.4476596e-01   8.9379407e-02
 -1.3152038e+00   2.9001031e-02
  1.7793541e-01   5.7744082e-02
 -1.1587206e-01   4.8427612e-02
  4.9006259e-01   2.3352563e-02
 -1.9175595e-01   9.9649116e-02
 -3.7258652e-01   9.2913084e-02
  4.0902770e-01   7.2718725e-02
  2.0136330e-01   8.6016998e-02
 -2.1040568e-01   3.6083478e-02
 -2.3993287e+00   3.6993206e-02
  2.8692129e-01   1.7316683e-01
  2.2249371e-01   4.1528542e-02
  2.7045527e-01   4.4529945e-02
 -1.9145799e-01   4.0211674e-02
 -1.0034382e-01   3.7156694e-02
 -5.5149503e-02   1.0263173e-01
 -8.7496407e-02   6.6734575e-02
 -4.7642540e-02   1.6773836e-01
 -3.8492702e-02   6.0443256e-02
  2.5322912e-02   1.0763588e-01
 -5.3709567e-01   8.6109899e-02
 -4.0289249e-02   2.3603986e-01
 -6.7802709e-01   1.8394418e-01
 -1.2957017e-01   7.7717230e-02
  2.9066044e-01   1.3098016e-01
  1.6602007e-01   6.2683091e-02
 -1.9218735e-01   1.8446663e-01
 -2.4751103e-01   2.0098461e-01
 -6.1258847e-01   5.9691437e-02
  4.7615218e-01   1.1664453e-01
  8.1417084e-01   2.9527729e-02
 -3.3450190e-02   6.7872852e-02
 -2.1751997e-01   2.9527925e-02
  7.3771471e-01   4.0738828e-02
  2.3755094e-01   8.8114090e-02
  2.0444183e-01   4.8507925e-02
  4.0795293e-01   2.9947434e-02
 -6.4266253e-01   1.6167675e-01
  6.6411734e-02   1.4284824e-01
 -5.1603311e-01   2.4418700e-01
 -2.1669528e-01   1.6455245e-01
 -1.6243452e-01   9.9544361e-02
  5.7319324e-02   1.3746250e-01
  6.8777427e-02   1.2776080e-01
 -2.1390754e-01   1.2708117e-01
  7.0186955e-01   6.6505894e-02
 -1.7988393e-01   1.1730955e-01
 -7.3793542e-01   5.2805122e-02
 -2.2424902e-01   1.0802793e-01
 -2.5017521e-01   1.5068503e-01
 -4.6426928e-01   6.9423817e-02
  2.2561586e-01   3.7166473e-02
  2.6045710e-01   1.6081214e-01
  1.6943340e-01   2.8324947e-01
  4.1964218e-01   4.0355362e-02
  3.5068157e-01   1.2243046e-01
  4.4033724e-01   3.1880397e-02
 -4.1272119e-01   1.7724258e-01
 -2.1485485e-01   2.7069923e-02
  2.9136257e-02   1.0386012e-01
  7.9013124e-02   1.0190628e-01
 -2.5565374e-01   3.6774926e-02
 -5.6789112e-01   3.6707669e-02
 -5.4490024e-01   3.2199778e-02
  1.2499664e+00   4.1836277e-02
 -8.9559627e-01   5.4221373e-02
  4.9915430e-01   9.1320261e-02
  5.4418409e-01   2.0580394e-02
 -6.5232146e-01   1.3754529e-01
 -2.5448913e-02   1.3058704e-01
 -1.1231072e+00   8.1003025e-02
 -4.8768163e-01   6.7344464e-02
 -3.8381219e-01   6.2609784e-02
 -7.6899715e-02   2.1636663e-02
  1.5604965e-01   6.2477339e-02
 -1.2134667e-01   1.0797166e-01
 -2.7752680e-01   9.7895183e-02
  2.6865622e-01   9.4329916e-02
 -1.0593051e-01   6.8112209e-02
  6.4250284e-01   4.8634350e-02
  2.5968736e-01   2.1914938e-02
  9.9602598e-01   8.2854927e-02
 -3.1635699e-01   1.3887081e-01
 -6.3378102e-01   4.9125906e-02
 -7.0466578e-01   1.2072329e-01
  2.8756329e-01   1.8310568e-01
  7.0383567e-01   1.6450167e-01
  9.2367971e-01   7.4173689e-02
  1.0869227e-01   2.6940981e-02
 -1.4668932e+00   1.4851426e-02
  3.6760989e-01   5.1459201e-02
 -4.6234021e-01   1.0222711e-01
 -1.0908091e-01   1.3505746e-02
 -3.2966277e-01   3.1608399e-02
  1.3890363e+00   1.1549664e-02
 -1.0611273e+00   1.4964146e-02
  1.2472928e-01   5.0720952e-02
 -6.4073771e-02   5.8160070e-02
  1.8771665e-01   4.0959906e-02
  8.2342073e-02   2.0030257e-01
 -2.3039654e-01   2.8991766e-02
 -1.3732743e-01   2.7467698e-02
 -1.0688368e+00   1.4567278e-02
 -4.4413629e-01   7.7885255e-02
  2.5647697e-01   8.1566535e-02
 -1.4651625e+00   4.3419808e-02
  4.1245395e-01   4.0624786e-02
 -4.3944049e-01   3.1275529e-01
  2.8577498e-01   1.4138064e-01
  6.7263311e-01   2.5675120e-02
  1.2199163e-01   6.3244648e-02
 -2.2304443e-01   1.8746059e-01
 -6.1443055e-01   2.3678549e-02
 -4.1615289e-02   1.4874994e-02
 -2.5435013e-01   2.3644539e-02
  1.0370504e+00   8.2463078e-02
 -2.7305439e-01   2.0397547e-01
  2.4459149e-01   5.3738154e-02
  3.9587215e-01   1.8698233e-01
  2.8121677e-01   8.4202006e-02
  3.3091629e-01   6.8341330e-02
  5.9490550e-02   6.9547124e-02
  2.6324341e-01   4.9669605e-02
  6.3527787e-01   4.7033865e-02
 -1.7128505e-01   7.0269555e-02
  1.0223379e+00   1.0829272e-01
  4.3385270e-01   5.4204881e-02
  1.5436120e+00   4.9533460e-02
 -3.4969851e-01   2.4475229e-01
  1.0218260e-01   8.0909468e-02
 -2.7308166e-01   1.0556302e-01
  3.3764923e-01   7.1698830e-02
  1.0965168e+00   7.6697133e-02
  2.9013220e-02   1.2900212e-01
 -1.0142659e-01   1.1013768e-01
  1.4025433e-01   1.0109003e-01
  5.1038221e-02   7.9739608e-02
  6.4950579e-01   5.3458918e-02
  7.1073502e-01   1.4325926e-01
 -2.2191122e-01   1.3438211e-01
  4.9140301e-01   1.9932859e-01
  1.1689460e-01   7.5804219e-02
  4.4420090e-01   1.9505501e-01
 -4.7380206e-01   2.8087083e-01
 -3.0165723e-01   1.6691743e-01
 -7.7398770e-02   4.4494908e-02
  1.8513621e-01   9.3923263e-02
  1.1756253e+00   1.3585825e-02
 -1.0911821e-01   4.7933400e-02
  1.1938459e-01   1.3334845e-01
 -4.2219776e-01   8.6581536e-02
 -4.3574116e-01   7.7977769e-02
  3.0737731e-01   1.2423914e-01
  6.4132255e-01   4.1172858e-02
  2.2678091e-01   1.0920674e-01
  7.5055093e-01   6.6504300e-02
  1.3837425e-01   8.2474872e-02
  6.0742993e-02   1.3491662e-01
 -3.7202972e-01   3.9987959e-02
  6.6034913e-02   1.8713582e-01
  8.1954879e-01   1.6735822e-02
  3.2868385e-01   1.7768230e-01
  6.8620157e-01   3.2286417e-02
 -6.8066734e-01   2.1930003e-01
 -7.2824258e-01   7.3930122e-02
  2.6812127e-01   2.8405020e-01
 -5.4611498e-01   1.1117215e-01
 -1.3702022e-01   2.1838525e-02
 -5.2345735e-01   2.4575332e-02
  3.2923728e-02   1.0865821e-01
 -3.2754324e-02   1.4295064e-01
  3.1341325e-02   1.0254297e-01
 -1.1415191e-01   8.7719291e-02
 -1.3894923e-01   1.9673012e-01
 -1.5854059e-02   5.5489156e-02
 -6.9045436e-01   1.0510830e-01
  3.2804853e-01   1.9432771e-01
  8.7852579e-01   1.8819014e-02
 -6.8496221e-01   1.2082025e-01
 -7.9507512e-01   6.2677316e-02
  5.3113051e-02   7.2937019e-02
 -8.3390117e-02   6.1859142e-02
 -1.1191893e-02   1.9123882e-02
  6.5803987e-01   1.8515954e-02
  9.4545163e-02   1.2365188e-01
  5.0580010e-02   4.0983111e-02
  1.2006841e+00   4.0980954e-02
 -1.7065480e-01   2.1188650e-02
 -1.6872537e-01   1.5752742e-01
  1.5939119e+00   2.0846352e-02
  1.2617387e-01   2.5841311e-02
  5.3769243e-01   4.4822238e-02
  4.8051831e-01   7.5117521e-02
  1.1371635e+00   7.1060784e-02
 -2.3698565e-01   8.4811188e-02
 -7.0908910e-01   9.8719746e-02
  1.6186342e-01   1.3176091e-01
 -1.7051241e-01   5.8249123e-02
 -6.6389048e-01   7.5376309e-02
 -5.7828899e-02   6.5140635e-02
 -8.6795436e-03   2.0369650e-01
 -1.5063082e-01   1.0464694e-01
 -6.2842488e-01   5.9608750e-02
 -1.5481113e-01   1.2320223e-01
  1.8357947e-01   1.3913791e-01
  8.8903445e-01   1.3283856e-01
  2.5848129e-01   1.3399857e-01
 -3.1579260e-02   8.6465776e-02
 -3.3980820e-02   8.3250344e-02
  1.1723301e+00   8.9553250e-03
 -3.8663420e-01   1.8351946e-03
 -1.2105992e+00   4.7981925e-03
 -5.3506798e-01   7.7828071e-03
  1.0232975e-01   9.5934502e-04
 -1.5949807e-01   6.5343797e-02
 -1.1211710e+00   2.1606252e-02
  1.8692246e-01   1.1800664e-02
  2.4999842e-01   2.3175079e-02
  5.8883600e-02   1.7682327e-02
  5.6560165e-01   3.7541989e-02
 -3.7956432e-01   2.1230802e-02
 -5.4691184e-01   5.1592901e-02
  1.7589073e-01   8.9136593e-02
 -5.1121396e-01   1.1597937e-02
  3.8720214e-01   9.8347910e-02
 -7.9839784e-01   3.2976195e-02
  8.9116365e-01   4.0467106e-02
 -3.1542036e-01   6.4349838e-02
 -2.4075802e-01   1.5644373e-02
 -4.3196663e-01   6.8105720e-02
 -7.4112147e-01   1.9008564e-02
  7.0265520e-01   2.0026362e-02
  1.7446216e+00   5.3369518e-02
 -6.1632276e-01   3.8334984e-02
  1.2811255e-01   5.8010396e-02
 -2.3918454e-01   9.2673853e-02
 -1.5585539e-01   2.8874427e-01
  7.1555573e-01   3.0984215e-02
 -9.5338516e-02   9.6048787e-02
  3.4292904e-01   3.2591857e-02
  6.4166433e-01   1.7487058e-02
 -1.4559711e+00   3.1390574e-02
 -5.6734604e-01   4.0976644e-02
  4.1253331e-01   9.0227891e-03
  7.6079451e-02   2.8262940e-01
 -2.8315693e-01   1.2573807e-01
 -6.5665507e-01   2.6811408e-02
 -5.1727849e-01   4.3254804e-02
 -3.3420593e-02   5.9461195e-02
  2.7908421e-01   1.6059658e-01
  1.0326520e-01   2.1875370e-02
 -2.0853364e-01   1.2974486e-01
 -1.2998696e-01   1.0126440e-01
  3.7662235e-01   1.2528552e-02
 -7.4448639e-01   4.8617672e-02
 -1.5965170e-01   1.8722579e-01
  1.4728893e+00   3.2249719e-02
 -3.8954878e-01   5.2266769e-02
 -4.0933806e-03   5.8836728e-02
  4.6065595e-02   7.4494980e-02
  2.9157227e-01   1.2778349e-01
 -5.6839299e-01   4.1471731e-02
 -6.7927656e-05   9.7191609e-02
 -1.5747786e-01   1.7478127e-02
 -1.8024985e-01   1.1028501e-01
 -1.3001324e-01   1.1931472e-01
  2.0287496e-01   7.2600126e-02
 -3.3708252e-02   1.1875484e-01
  1.5000844e-01   1.0959104e-01
 -1.9670728e-01   5.8520898e-02
  2.4150571e-01   2.0776059e-01
  1.6702293e-01   2.9601388e-02
  2.8757378e-01   1.5290742e-01
  5.9731013e-01   3.1322137e-02
  9.8889014e-03   1.4336570e-01
  7.1903461e-01   1.0994668e-01
 -9.5198542e-02   7.2382301e-02
 -6.2739894e-02   1.2152100e-01
  7.1596521e-01   2.9768823e-02
  6.2719677e-03   1.9894926e-02
 -2.6599830e-01   4.5792338e-02
 -8.9380562e-02   1.1399642e-01
  5.5298543e-01   2.8258983e-02
 -1.0181208e-01   4.5139141e-02
 -3.8496548e-01   1.6693631e-01
  5.4693109e-01   5.5497967e-02
 -4.4346623e-02   5.6987781e-02
 -8.9421257e-02   5.0234556e-02
  1.2835159e+00   3.6471248e-02
 -8.6369403e-02   1.5042128e-01
  7.6938801e-02   4.3550950e-02
 -1.1214256e-01   8.5518785e-02
  2.4289082e-01   1.1597791e-01
 -6.1970931e-01   1.1720338e-01
 -5.1279175e-01   2.3651117e-02
  3.4707162e-01   2.3232879e-02
  3.3390190e-02   7.3697932e-02
  7.2042078e-01   3.9769616e-02
 -1.3290772e-01   3.5058774e-02
 -1.7028451e+00   4.0433886e-03
  9.0210140e-01   5.0051082e-03
  2.2226641e+00   2.6633521e-03
 -7.3900580e-02   3.7543678e-03
 -4.8833558e-01   1.3548412e-03
  4.6510240e-01   1.7530276e-02
  6.6019428e-01   4.0963806e-02
 -2.2631891e-01   1.8416236e-01
 -3.3708259e-01   5.5690475e-02
  1.6765471e+00   3.9509896e-02
 -2.3346530e-01   1.0729013e-01
  8.9965361e-01   6.8546556e-02
  3.6527610e-01   1.0679907e-01
 -7.7371466e-01   5.0148278e-02
  4.6359861e-01   2.8131526e-02
  3.0709928e-01   8.0224551e-02
  1.4853895e-01   6.0353473e-02
  3.6154860e-01   3.0580411e-02
  2.8835216e-01   6.5143853e-02
  1.2072378e-02   2.9368689e-02
  1.5234884e-02   1.8618314e-01
 -1.6698011e+00   6.9750540e-02
 -1.2223012e+00   4.0466286e-02
 -4.4247553e-01   3.7699733e-02
 -7.4073993e-02   2.1802185e-01
 -4.0279385e-01   6.9254734e-02
  2.6085147e-01   1.9617736e-02
  1.9390245e-01   8.4903732e-02
  9.9834532e-01   3.8592558e-02
  2.2343153e-01   2.8452652e-02
  8.1422843e-02   4.2462301e-02
  3.5367826e-01   1.3012224e-01
 -2.4908765e-01   1.3681556e-01
  2.9674426e-01   9.8154515e-02
 -6.3173604e-01   4.7099620e-02
  4.3040642e-01   9.7153500e-02
  1.2946835e-01   1.0634174e-01
  6.5581128e-02   1.7128330e-01
  3.7803599e-01   1.8891275e-01
  7.1105593e-01   4.3082494e-02
  2.5583431e-01   1.2622629e-02
  4.8220769e-01   6.6277161e-02
 -2.5099534e-01   5.3616241e-02
  4.1055742e-01   1.2657732e-01
  1.2898996e-01   3.6024984e-02
 -7.2080123e-01   9.1222733e-02
  6.7293960e-01   4.7608797e-02
 -2.5133190e-01   1.0081602e-01
  3.1495735e-02   1.6700268e-01
 -2.7159292e-01   8.5937358e-02
  1.2234295e-01   1.2024382e-01
 -9.0349443e-02   6.2971801e-02
 -4.5559376e-02   6.6300273e-02
  2.5830868e-01   3.9785974e-02
  2.1887000e-01   3.6068968e-02
  4.2249639e-02   6.5442786e-02
 -4.3762156e-01   1.3669181e-01
 -2.2793217e+00   2.7527440e-02
 -1.1231537e+00   1.8228162e-02
 -1.5709089e-01   4.5671146e-02
 -1.7691921e-01   1.9999113e-02
  7.5225812e-01   6.1615467e-02
 -6.6640115e-01   2.9910674e-02
  7.5224578e-01   1.2890048e-01
 -4.0843365e-01   1.6669435e-02
 -3.6625785e-01   4.0974408e-02
  7.1077329e-01   4.7894858e-02
 -1.3723728e-01   9.8291054e-02
 -3.6927620e-01   8.1560493e-02
 -8.3841777e-01   1.2312976e-01
  1.2602181e+00   9.9061141e-03
 -2.5634980e-01   1.6373676e-01
 -5.3116743e-02   1.7276181e-01
 -4.2941672e-01   1.3267656e-01
 -3.8604602e-01   8.5100204e-02
 -1.6572317e-01   1.0063554e-01
 -7.9291308e-01   5.9620325e-02
  5.1132613e-01   7.0808157e-02
  5.2545529e-02   1.8596773e-01
  7.3546566e-02   3.3609238e-02
  4.7142839e-01   1.2312925e-02
 -1.1783470e-01   1.3213164e-01
  4.6465406e-01   2.0088167e-01
  9.5640230e-01   7.3130213e-02
  1.5615435e-01   2.0831257e-01
 -1.2397691e-02   5.1147252e-02
 -1.1375306e+00   2.7788151e-02
 -5.4326946e-01   7.5806923e-02
  2.3312527e-01   1.1532452e-02
  5.7623915e-02   9.5883593e-02
 -1.6514858e-02   6.5998457e-02
  8.5416973e-01   6.5495998e-02
  1.5994306e-01   7.2237454e-02
 -3.8685480e-01   4.1668259e-02
 -4.3813908e-01   2.1849170e-02
  1.3872092e+00   1.0974035e-01
  3.1371962e-02   6.0128093e-02
  4.5775679e-01   3.2803237e-02
 -6.3326079e-01   1.5635356e-01
 -1.5488375e+00   1.1194508e-01
 -1.8451478e-02   1.8847151e-01
  1.5947348e-01   1.1256291e-01
 -2.7380508e-01   5.3143250e-03
 -8.1116444e-01   3.6075208e-02
 -1.5154010e+00   1.8709021e-02
 -5.5282795e-01   9.1200307e-02
  3.6670932e-01   1.8475403e-01
  5.2987832e-01   5.2738715e-02
 -5.7984245e-01   4.3312665e-02
 -4.7984567e-01   4.1283615e-02
  4.7104713e-01   6.8625137e-02
 -5.0453618e-02   5.9885375e-02
 -1.3367325e+00   8.6275302e-02
  1.0032433e+00   1.8479297e-01
  3.7395599e-01   1.1040176e-01
  5.3554147e-01   3.4060072e-02
  7.3689155e-02   4.6168540e-02
 -2.1204084e-01   1.4041832e-01
  9.3538260e-01   1.4784986e-01
  5.4980701e-01   1.0849082e-01
  2.9654089e-01   7.8232288e-02
 -5.5520451e-01   8.9765891e-02
 -2.9474133e-01   6.6034541e-02
 -7.5452840e-01   3.8724795e-02
 -4.4698089e-01   6.9798812e-02
  1.8386675e-01   1.0784638e-01
  1.3333809e+00   5.1841062e-02
  1.3230793e-01   8.5774601e-02
 -1.2008908e+00   3.0017011e-02
 -4.2066142e-01   5.3258944e-02
 -5.8841413e-01   2.6705706e-02
 -3.8598216e-01   1.0939077e-01
 -1.8759762e-01   4.6293020e-02
 -2.0794091e-01   8.6772136e-02
 -1.4065574e-01   2.2364640e-01
  5.6349534e-01   6.2298391e-02
  1.2932062e-01   2.0213997e-01
 -7.9865893e-03   2.7280258e-02
 -1.4843580e-01   2.2694170e-01
  7.8861609e-02   5.8842763e-02
 -8.2776791e-01   2.9422142e-02
 -2.5418710e-02   4.8344139e-02
 -2.7351066e-01   7.4702628e-02
  4.1280437e-01   5.5097435e-02
  2.4085167e-01   5.9611157e-02
  1.8311122e-01   9.8782882e-02
  2.1648484e-01   1.1100465e-01
  1.1211000e-01   1.4568803e-01
 -1.4421895e+00   6.9809407e-02
  4.3349445e-01   8.2574219e-02
 -1.9394857e-01   1.4891799e-01
 -2.9211211e-01   4.7808059e-02
 -5.5700171e-01   5.5253252e-02
  5.1686086e-02   3.8519789e-02
  8.7263596e-01   2.0837417e-02
 -4.8577079e-01   5.5377323e-02
  1.3951193e-01   2.1261317e-01
  7.9742908e-02   1.8162441e-02
  3.1256542e-01   8.2313843e-02
 -6.7170024e-02   1.0083430e-01
  4.9736422e-02   1.3253880e-01
  3.0846646e-02   8.1486613e-02
 -3.1829929e-01   7.6838873e-02
  1.2725406e-02   1.0275196e-01
  6.5305656e-01   2.7827421e-02
 -3.9276233e-01   4.5789015e-02
 -2.1332808e-01   2.0656368e-01
 -3.4326929e-01   1.9619578e-02
 -2.1875784e-01   1.5582891e-01
 -4.1022491e-02   1.6256332e-01
 -8.1523377e-03   8.2872584e-02
  8.8949543e-01   2.7077023e-02
 -2.2858989e-01   4.1954964e-02
  2.2291495e-02   9.5444083e-02
  9.9082403e-02   6.2880419e-02
  3.4066176e-01   1.4486374e-01
 -5.2641177e-01   4.4153124e-02
 -9.2969052e-02   4.2469058e-02
 -1.3413526e-01   6.1262056e-02
  9.2395931e-01   8.9012764e-02
  8.9547858e-02   7.2993994e-02
  6.1677969e-01   4.9798027e-02
 -1.7168415e+00   1.5791455e-02
 -1.2819362e-01   1.6328929e-01
 -7.3354252e-02   1.0264786e-02
 -6.2359661e-01   2.0834597e-02
 -7.7354324e-01   3.8389653e-02
  1.1497606e-01   1.0068269e-02
  4.4657716e-01   3.4522146e-03
 -6.6453710e-02   2.4535628e-02
 -1.1148536e-01   4.3027915e-02
 -6.7323512e-01   4.7715884e-02
  4.6639970e-01   2.9204531e-02
 -3.1275490e-01   9.5677681e-02
 -7.4545479e-01   5.7231367e-02
  2.5248325e-01   7.5050756e-02
  1.8854961e-01   9.4791688e-02
 -1.0861287e+00   2.9613901e-02
 -1.7272589e-01   9.3602203e-02
 -1.2125280e-01   5.0793730e-02
 -1.1354739e-01   5.3889345e-02
  4.0682146e-01   2.9935241e-03
 -4.7596553e-01   2.7985116e-02
  3.7837338e-01   4.3169655e-02
 -9.5942533e-01   4.8409482e-03
  2.6376635e-01   1.1971756e-01
  2.1998687e-02   6.0224682e-02
 -3.9780188e-01   1.2457626e-01
 -1.2244200e+00   6.7910261e-02
 -1.6479245e-01   6.4199105e-02
  2.0787408e+00   2.5678502e-02
  1.3731833e+00   4.2253193e-02
 -1.3185524e+00   2.6993148e-02
  8.1970787e-01   2.3452220e-02
  2.3813120e-01   3.1692326e-02
 -8.0257213e-01   1.0333671e-01
 -2.3244551e-01   7.7487268e-02