2
energy=-6.489383 Lattice="3.155734316 0.599675484 -0.701986499 -0.758236990 2.779860728 -0.162320058 0.086837300 0.648871474 3.603476546" virial="-3.59066 0.02951 0.58043 0.02951 -4.10300 -0.13244 0.58043 -0.13244 -3.58745" Config_type=outcar2xyz/OUTCARs/Cu_single-point Properties=species:S:1:pos:R:3:forces:R:3 pbc="T T T"
Cu	      0.00000      0.00000      0.00000        -0.000000     -0.000000     -0.000000
Cu	      1.24217      2.01420      1.36959         0.000000      0.000000      0.000000
391
energy=-3310.056145 Lattice="15.810234548 0.000000000 0.000000000 0.000000000 15.810234548 0.000000000 0.000000000 0.000000000 15.810234548" virial="388.94977 -5.71629 -13.89680 -5.71629 371.83621 -4.10679 -13.89680 -4.10679 396.29737" Config_type=outcar2xyz/OUTCARs/WH-AIMD Properties=species:S:1:pos:R:3:forces:R:3 pbc="T T T"
W	      1.61963      1.55619      1.58553        -0.360000     -0.284886     -0.207440
W	      3.26025      3.21102      3.19973         0.187182      0.078115      0.259360
W	      3.16968      3.18085      0.00515        -0.246417     -0.291103     -0.022057
W	      4.75250      1.61484      1.57403         0.130063     -0.323058      0.061831
W	      6.37401      3.20735      3.14473        -0.654184     -0.104400      0.138700
W	      6.29818     15.79179      3.18746        -0.492055      0.403561     -0.080722
W	      7.91954      1.70361      1.53242        -0.062193     -0.234522      0.111281
W	     11.09258      1.64750      1.57016        -0.027176     -0.209121     -0.115252
W	      9.50797      3.20714      3.11013         0.098268      0.200162      0.355693
W	      9.48757      0.12124      3.01844         0.247870      0.009669      0.050162
W	      9.45126      0.02305      0.00316        -0.369355     -0.012101      0.318904
W	      9.51210      3.18634     15.75571         0.033736     -0.257798      0.309454
W	     15.80660      3.11499      0.04910         0.089029     -0.172758     -0.230123
W	     15.74054      3.17926      3.18709         0.391014     -0.015363      0.085037
W	     14.22923      1.59053      1.61574        -0.002174      0.113842     -0.375158
W	     12.66267      3.20444      3.14408        -0.176161     -0.036365      0.294079
W	     12.71517      0.02784      0.02144        -0.189383     -0.319573     -0.178825
W	     12.64992      0.05199      3.15220         0.032209     -0.287536     -0.224698
W	     12.67644      3.18241     15.80308         0.145219     -0.378215      0.074919
W	      1.58440      4.80486      1.57447         0.124001      0.414604     -0.027276
W	      3.20215      6.33482      3.18577        -0.586740     -0.343475     -0.750156
W	      3.15407      6.32537      0.01075        -0.468905     -0.317006     -0.177230
W	     15.80244      6.33934      3.14686         0.109503     -0.225956      0.126916
W	     15.79018      6.39181      0.04212         0.378297     -0.336178     -0.184583
W	      4.75472      4.74119      1.54994        -0.085966     -0.055357     -0.115764
W	      6.35822      6.34501      3.09477        -0.312908     -0.166180     -0.786761
W	      7.92118      4.73779      1.48098         0.103756      0.458699     -0.918654
W	     11.08106      4.73358      1.53044        -0.018964      0.467981      0.255001
W	      9.44924      6.37088      3.14229        -0.471301      0.031552      0.169968
W	     11.07638      7.89781      1.46079        -0.320523     -0.077086      0.238967
W	     14.20745      4.76163      1.59820         0.331440      0.171945     -0.177484
W	     12.65529      6.32221      3.17609        -0.244887      0.154083     -0.383266
W	     12.67103      6.31507     15.80222        -0.178819      0.012981     -0.096623
W	      1.58210      7.91142      1.60842        -0.075716     -0.079166     -0.417837
W	      1.57452     11.04115      1.58392         0.252840      0.009729     -0.014207
W	      3.14272      9.47110      3.14926         0.606974      0.173280      0.646865
W	      3.14112      9.44914      0.01472        -0.172467      0.630338     -0.225622
W	     15.80909      9.51021      3.11952        -0.021593     -0.321860      0.328240
W	      4.70278      7.88110      1.48239         0.907354      0.380316      0.026141
W	      7.90899      7.84409      1.44899         0.098349      1.082479     -0.170674
W	      4.69214     11.06217      1.53807         0.637310     -0.357128      0.813021
W	      6.34996      9.41116      3.12771        -0.411535      1.006483      0.914145
W	      7.87922     11.03561      1.46541         0.021008     -0.635084      0.521495
W	     11.08359     11.02195      1.54793        -0.320264     -0.431591      0.171313
W	      9.41059      9.41989      3.14750        -0.023191     -0.200672      1.080280
W	      9.48214      9.49259     15.78519         0.469319      0.117763      0.195755
W	     14.22379      7.90735      1.57034         0.029801     -0.029707      0.397020
W	     14.22621     11.05083      1.57144        -0.004503     -0.087224      0.176350
W	     12.65345      9.47006      3.17844        -0.063387     -0.365395     -0.280715
W	     12.65814      9.48428      0.05128        -0.470602      0.210845      0.354721
W	     15.80105      9.46826      0.02565         0.177912      0.249364     -0.181115
W	      3.15696     15.80785      3.14843        -0.031124      0.162049     -0.113824
W	      3.15282      0.01387      0.02542         0.133269      0.130662     -0.348757
W	      1.60380     14.23471      1.58265         0.011957     -0.018226      0.257740
W	      3.16876     12.62964      3.16161         0.205506     -0.201281      0.227736
W	      0.02878     12.58212      0.02059         0.064454      0.044248     -0.326802
W	      0.07140     12.67491      3.11754        -0.265377     -0.217395     -0.099044
W	      3.12659     12.64633      0.02073        -0.115249      0.212534      0.051530
W	      4.71658     14.21781      1.58535         0.309750      0.012071     -0.028156
W	      6.30336     12.63321      3.14232         0.316464     -0.687695      0.291833
W	      7.85375     14.14916      1.57308         0.498328     -0.534484      0.102041
W	      9.50509     12.41150      3.24026        -0.512250     -0.343298      1.302379
W	     11.13927     14.24665      1.57080        -0.369242     -0.062444      0.244983
W	     15.80712      0.02483      3.17055         0.033826     -0.253181     -0.222140
W	     12.59077     12.59327      3.15678        -0.409961      0.186602      0.097328
W	     14.20387     14.22522      1.64524         0.016425      0.212465      0.244468
W	      1.53730      1.58541      4.72117         0.128750      0.214474      0.306834
W	      3.18012      3.28031      6.35050         0.267382      0.023093      0.281713
W	      1.62840      1.58746      7.83337         0.095792      0.392358      0.025736
W	      0.00627      0.00674      6.31761         0.238180      0.283613     -0.228694
W	      0.00391      3.18597      6.31848         0.295387     -0.329272     -0.125990
W	      4.82140      1.57033      4.71055        -0.163465      0.361150      0.440311
W	      6.38321      3.23222      6.40417        -0.498701      0.373996     -0.648654
W	      6.23225      0.01275      6.32929         0.190083     -0.076031      0.080678
W	      7.90879      1.57678      4.68783         0.049343      0.258643      0.498403
W	     11.11370      1.69558      4.72963        -0.281561      0.215618      0.200750
W	      9.42269      3.16200      6.33418         0.427982     -0.600031     -0.574199
W	      9.58994      0.00113      6.38498        -0.337835     -0.341894      0.214314
W	     11.02468      1.66747      7.83353        -0.077766     -0.442556      0.008936
W	     14.23508      1.61354      4.75349         0.102010      0.015884      0.109665
W	     12.67889      3.16906      6.32520         0.495117      0.010829      0.085234
W	     14.30117      1.61244      7.90563        -0.223840      0.398364     -0.193854
W	      1.56990      4.78693      4.75898        -0.243950     -0.237699     -0.328852
W	      3.15798      6.40242      6.38716        -0.265057      0.009225     -0.736249
W	      4.71424      4.77364      4.73380         0.064218     -0.786882     -0.032089
W	     11.12085      4.69710      4.84503        -0.330194      0.912388     -0.293092
W	      0.01083      6.31722      6.28194         0.300512      0.062634      0.281347
W	     14.22504      4.76865      4.76452         0.059127      0.099729     -0.131308
W	     12.70904      6.34543      6.32572         0.646311      0.122233     -0.547425
W	     14.28726      7.91599      4.76428        -0.077109     -0.182543     -0.143492
W	     14.29664      4.78359      7.90745        -0.108259     -0.212366     -0.296111
W	      1.52357      7.90605      4.72585        -0.695925     -0.128372      0.282582
W	      1.56707     11.05700      4.70582         0.335936      0.047007      0.195038
W	      3.14555      9.44510      6.32900         1.242978      0.026678      0.504487
W	      1.50460     11.03330      7.81530         0.077484     -0.419327     -0.009436
W	      4.75744     11.08302      4.72436        -0.596479     -0.393789     -0.083634
W	     11.14099     10.97674      4.81816        -0.154152      0.637819     -0.167245
W	      0.01407      9.46910      6.28395        -0.226841      0.120421      0.282235
W	     14.24164     10.96889      4.76046        -0.018079      0.015824      0.257013
W	     12.64282      9.41883      6.38006         1.037859      0.342770     -0.496519
W	     14.26708     11.02925      7.91600         0.335935     -0.185251      0.076560
W	      3.15904     15.75143      6.32611         0.020457     -0.223510     -0.137284
W	      1.58396     14.21753      4.72808         0.171022      0.367292      0.207444
W	      3.17927     12.65572      6.32886         0.185716     -0.320514     -0.058571
W	      1.65369     14.25631      7.91151        -0.291480     -0.035165     -0.152392
W	      6.33935     12.67590      6.38240         0.146823     -0.955836     -0.530962
W	      4.73519     14.22665      4.72970         0.443506     -0.133040      0.259988
W	      7.88524     14.18618      4.74336        -0.190626      0.671354     -0.112109
W	      4.74882     14.27062      7.92112        -0.182195      0.529080     -0.209342
W	      9.45635     12.59433      6.39794        -0.675458     -0.419234     -0.979675
W	     11.15069     14.15118      4.76717        -0.813615     -0.140279     -0.156408
W	     11.08779     14.24754      7.89890        -0.507941     -0.175865     -0.335191
W	      0.02813     12.65061      6.23479        -0.265855     -0.267730     -0.108639
W	     12.67580     15.79264      6.26764         0.045914      0.022503     -0.611086
W	     12.70770     12.62215      6.36019        -0.318177      0.016274     -0.298227
W	     14.24802     14.31164      4.75754        -0.136155     -0.574331      0.122333
W	     14.17520     14.25744      7.89549         0.220264     -0.403057      0.208137
W	      1.56298      1.59698     11.09856         0.050235      0.091730     -0.172869
W	      3.17370      3.22852      9.46609         0.039757     -0.340899      0.445314
W	      3.16169      0.01268      9.50492         0.042112     -0.007093      0.249883
W	      4.75561      1.53539      7.91859        -0.056597     -0.318818     -0.292874
W	      4.80950      1.60945     11.01948         0.116574     -0.037273     -0.086229
W	      6.36670      3.13268      9.45154        -0.403802      0.862535      0.379289
W	      7.88299      1.63120     11.03570        -0.076630      0.299702      0.024429
W	      7.88944      1.46959      7.92719        -0.230170     -0.145142     -0.562719
W	     11.07141      1.65182     11.14359        -0.185378     -0.028215     -0.288838
W	      9.45174      3.15128      9.40511         0.131192      0.146110      1.476678
W	      9.48874     15.78757      9.43120         0.472547     -0.450340      0.210227
W	     15.79172      3.21615      9.49338         0.223726     -0.023152      0.398658
W	     14.22280      1.58818     11.08173         0.082476      0.210316     -0.123240
W	     12.65713      3.19216      9.50849        -0.131296      0.078789     -0.229959
W	      1.51447      4.77813      7.90063         0.498561      0.315963      0.005490
W	      1.57252      4.75058     11.06935         0.017369      0.146683     -0.101620
W	      3.18047      6.42010      9.41660        -0.142805     -0.035438      1.185558
W	      1.53809      7.90640     11.09632         0.123660     -0.555115     -0.732047
W	      4.74556      4.77591     11.08822         0.394623      0.881521     -1.093261
W	     11.02295      4.77361     11.03838        -0.396511      0.394162     -0.939970
W	      0.00446      6.30650      9.52066         0.257228      0.430782      0.058029
W	     14.23108      4.77160     11.04487        -0.086822     -0.337159      0.316085
W	     12.66422      6.34033      9.42215        -0.174523     -0.249410     -0.630196
W	     14.24991      7.90285     11.04530         0.749545      0.267319      0.125559
W	      1.52225      7.92521      7.90471         0.165984     -0.090238      0.149873
W	      1.54142     11.01895     11.15919         0.504740      0.043737     -0.317707
W	      3.10393      9.41524      9.51174         1.266356      0.273117     -1.435210
W	     15.79831      9.47904      9.51748        -0.024078      0.064570      0.039288
W	      4.76622     11.01420     11.05856        -0.811537      0.546708      0.607847
W	     11.02858     11.08200     11.02488        -0.776052     -1.078872      0.077920
W	     14.35392      7.87083      7.93742        -0.624859      0.537946     -0.509321
W	     12.60865      9.44292      9.40834         0.346661      0.192485      1.064831
W	     14.21866     11.03617     11.07511         0.156725     -0.331813      0.210519
W	      1.58423     14.25267     11.08148         0.047111      0.109252     -0.144818
W	      3.19185     12.68836      9.50072         0.060467     -0.431103     -0.040463
W	      6.29277     15.80256      9.51098        -0.130993      0.301047      0.106143
W	      6.28672     12.67420      9.48154        -1.679322      1.206550      0.979399
W	      4.76073     14.25207     11.06243        -0.423983      0.125425      0.043104
W	      7.82921     14.22673     11.06910         0.622188      0.531976      0.170178
W	      7.83456     14.29733      7.94846         0.931845      1.189533     -0.824104
W	     11.03886     14.19011     11.12853        -0.371764     -0.047679     -0.625118
W	      9.25267     12.57433      9.50314         0.880914     -0.247378      0.587150
W	     12.70167     15.76156      9.58342        -0.148480     -0.177518      0.373124
W	     15.77777     12.63798      9.56092        -0.150777     -0.210725      0.373785
W	     15.77039     15.74087      9.51480        -0.078707     -0.049711      0.156307
W	     14.23404     14.20649     11.10747        -0.295992      0.154827     -0.162208
W	     12.72913     12.62510      9.51159         0.449947      0.076336     -0.325952
W	      0.03346      0.03678      0.01445        -0.058708      0.125555     -0.030199
W	      1.59009      1.59065     14.25097         0.001304      0.033164     -0.176985
W	      3.19686      3.27885     12.66373        -0.325370     -0.166224     -0.030398
W	     15.79710      3.12525     12.66722         0.257508      0.483234     -0.133907
W	      6.29088      3.15523     15.77849         0.054259      0.131076      0.069994
W	      6.26433      0.01353     15.75792         0.167973      0.137762      0.343689
W	      4.73694      1.61351     14.23044         0.010819     -0.205137     -0.061805
W	      6.32094      3.23754     12.62437         0.121528     -0.797843      0.462810
W	      6.30299      0.08798     12.65918        -0.353956      0.054114     -0.034215
W	      7.89429      1.61567     14.22007         0.171824      0.193892     -0.071968
W	     11.09473      1.67211     14.21386        -0.175069     -0.124617     -0.051642
W	      9.48009      3.19722     12.62856        -0.438107     -0.115794      0.066218
W	      9.50668      0.02084     12.73673         0.177279     -0.338711     -0.102969
W	     14.23232      1.58736     14.23973        -0.104963      0.008360     -0.179927
W	     12.64134      3.19417     12.62594         0.166135      0.014345      0.168312
W	      1.62657      4.75558     14.21380        -0.002870      0.057382      0.123406
W	      3.16347      6.34013     12.62853         0.389443     -0.167714     -0.002731
W	      1.60106      7.89140     14.23691        -0.383311     -0.141400      0.065550
W	     15.80398      6.29645     12.66267         0.279266      0.235496     -0.174356
W	      6.29015      6.28037     15.79758         0.057270      0.021641      0.064075
W	      4.76857      4.77197     14.23137        -0.376320     -0.100118      0.208175
W	      6.37273      6.40947     12.70195         0.431931     -0.537702     -0.578750
W	      4.75852      7.88561     14.27552        -0.062084      0.529311      0.298342
W	      7.91541      4.77280     14.25074         0.200965     -0.046083      0.029580
W	      9.50954      6.27773     15.79117         0.226098      0.271978      0.213852
W	     11.08459      4.75968     14.23005        -0.031254      0.040008     -0.420060
W	      9.49897      6.35806     12.72853        -1.118992     -0.215887     -1.595442
W	      7.87664      7.90098     14.35980         0.346672      0.230809     -1.019452
W	     11.07386      7.90456     14.30226        -0.196894     -0.306893     -0.416558
W	     14.17011      4.75018     14.19272         0.111406     -0.074319     -0.220606
W	     12.65296      6.32929     12.61645        -0.621244      0.329915     -0.197536
W	     14.26516      7.85227     14.21111        -0.299913      0.115674      0.038587
W	      1.54503     11.03429     14.27102         0.236595     -0.060565     -0.082283
W	      3.15501      9.37743     12.63134        -0.332597      0.304239      0.330393
W	      6.28462      9.48564      0.00782        -0.045574     -0.023680      0.171708
W	      4.78727     11.04977     14.28568        -0.165171     -0.076901     -0.086089
W	      6.31841      9.49668     12.66715         0.631313     -0.664628      0.319403
W	      7.89545     11.05372     14.27826        -0.360742     -0.283621     -0.056600
W	      9.38800      9.39742     12.66744         0.715384      0.685949     -0.317747
W	     11.04395     11.04314     14.22427         0.172692     -0.157092     -0.280512
W	     15.80535      9.48159     12.68671        -0.182087     -0.197917     -0.370661
W	     12.57624      9.46609     12.58158        -0.233674     -0.064046     -0.707851
W	     14.25994     11.11019     14.22828        -0.167724     -0.126805      0.038397
W	      3.14867     15.76943     12.70346         0.037106     -0.161986      0.092723
W	      1.56012     14.21890     14.24109         0.182167      0.114334     -0.000883
W	      3.16153     12.69173     12.61647         0.075798      0.096502     -0.364720
W	      0.02759     12.64982     12.65932        -0.220202      0.010789      0.136235
W	      6.29795     12.65006      0.00249        -0.249403     -0.132047      0.027697
W	      6.26290     12.58476     12.61525         0.082662      0.571230      0.081091
W	      4.65907     14.22630     14.27424         0.159904     -0.041880     -0.079811
W	      9.50580     12.61154     15.78407         0.244283      0.144046     -0.664688
W	      7.95784     14.21234     14.26449         0.199793     -0.094546     -0.012033
W	     11.07762     14.14280     14.19341        -0.084116      0.079495      0.221527
W	      9.42943     12.58790     12.65549         0.289906     -0.104504     -0.090302
W	     12.65968     12.61117      0.00684         0.010761      0.359422     -0.116402
W	     12.66723     15.80662     12.65763        -0.064545      0.105426     -0.053961
W	      0.00319     15.80641     12.66111         0.067081     -0.027600      0.262061
W	     14.19939     14.19835     14.17171        -0.251982      0.320064     -0.184831
W	     12.63475     12.59879     12.63180        -0.156116      0.002593      0.063780
H	      1.60937      3.19362      2.38037        -0.052829     -0.085316      0.242190
H	      7.18836     15.79554      1.60305        -0.124506      0.440596     -0.386375
H	      7.47846      4.68651      3.21938        -0.176749      0.361511      0.661578
H	      7.42188      7.88800      3.19904         0.266376      0.145209      0.219248
H	     10.65614      8.06307      3.25406        -0.038311     -0.432255     -0.002365
H	      4.47317      8.15158      3.29820         0.177881     -0.031822     -0.004715
H	      8.35923     11.02402      3.37428        -0.383264     -0.155859     -0.376455
H	      9.48840     14.20437      3.83735         0.273405     -0.110448     -0.153056
H	      9.49071     13.31436      1.68645         0.230598      0.462173     -0.230077
H	     14.22028     12.58119      3.96455         0.165582      0.423668     -0.042787
H	      3.16842      1.61504      5.57423         0.175644      0.156185     -0.108615
H	      8.18634      3.44999      4.58291         0.268956     -0.544248     -0.228478
H	      4.81729      3.34833      7.52510        -0.296629      0.018454     -0.225020
H	      8.01896      3.23938      7.69382        -0.095026      0.366903      0.120923
H	      7.93487      0.02919      5.59875         0.020220     -0.297776      0.113088
H	     10.33823      0.08242      4.69176        -0.079221     -0.499374     -0.185412
H	      3.27395      7.50353      4.51761         0.486576      0.145700      0.904065
H	      6.27375      5.01126      6.51324        -0.280184     -0.829487     -0.377856
H	      4.38910      4.77025      6.50196        -0.741503      0.016194      0.847997
H	      4.84950      6.44965      4.11402        -0.333134      1.020879     -0.287509
H	      4.85919      6.42746      6.01684         0.437368     -0.063731     -0.061161
H	      6.46704      4.18136      4.78831         0.463402     -0.199655      0.097759
H	      7.80916      6.34790      4.13918         0.543612     -0.273053     -0.327985
H	      7.13137      7.55325      8.52231        -1.069878     -0.191243     -0.724997
H	      6.35674      4.23856      7.94563         0.174193      0.011601      0.123063
H	      8.25649      7.59018      7.02144        -0.049603      0.597168     -0.992251
H	      8.32203      6.74532      6.66560         1.112126     -1.409609     -3.743810
H	      8.09757      5.95887      8.72853         0.434822     -2.097326      0.547381
H	      7.45240      6.40350      6.34407        -1.368988     -0.618275     -3.715525
H	      8.25345      6.11644      7.95497         0.995807     -2.685805      1.948879
H	      6.49612      7.16913      7.11496        -2.068035      0.862636     -2.064673
H	      9.60130      8.53705      7.60770         2.149398      2.015738      0.444431
H	      7.84441     10.01080      6.40151        -0.632842      1.431634     -0.696787
H	      8.68561      9.49288      7.32107         1.109450      1.989371     -0.728453
H	      8.22415      8.60407      6.18203         0.603758     -0.891414     -1.062148
H	      7.98560      4.25041      6.17144        -0.391051      0.232891      0.252603
H	      9.28069      4.80302      4.01024        -0.097902     -0.144272      0.301371
H	      9.69883      4.92220      6.05508        -0.108699     -0.043375      0.120611
H	      5.98251      6.48816      8.48231        -4.358846     -2.051234      0.906297
H	     10.84384      6.25909      5.87605         1.001608     -0.634218     -0.577214
H	     10.99499      6.38939      4.06149         0.495461      0.579989      0.053865
H	     11.75351      4.74150      6.64237        -0.239642      0.132486     -0.069485
H	      9.05535      7.75887      4.43745         0.641642      0.159674     -1.363139
H	      5.81157      7.32192      9.15425        -1.356906      1.071722      3.987529
H	      9.56308      8.02031      6.60129         1.040532      1.596286     -3.115115
H	      8.41832      9.18958      8.07569         0.421248      0.495035      0.668418
H	      4.22257      6.54617      7.85244        -0.163984     -0.071217      0.203721
H	      3.30515     11.13867      7.39845         0.103215     -0.419221      0.091922
H	      6.13970      7.96206      4.41973         0.247096     -0.125995     -1.009026
H	      4.17390      9.06467      4.71067        -0.325270      0.661520      0.106820
H	      6.45760      9.54830      9.29947        -3.110418      1.006063      0.832226
H	      7.31583      8.45092      9.62792        -2.109487      0.009836      1.035942
H	      6.43545      6.21832      4.74482        -0.132987     -0.380410      1.412742
H	      9.20206      8.63808      5.89887         3.576177     -0.979968     -0.212831
H	      4.26718      7.96892      6.49088        -0.339795     -0.417283     -0.142814
H	      6.42876     10.86813      6.23998        -0.359511      0.548343     -0.195946
H	      4.96270      9.88454      6.34336        -0.408446     -0.332441     -0.153820
H	      4.88259     11.64259      6.67641        -0.670738      0.395334     -0.283576
H	      6.57762     11.08346      4.26875         0.024312     -0.135067     -0.668272
H	      6.10624      9.49490      4.98498        -0.222497     -0.194348     -0.297425
H	      7.66783      9.30625      6.10549        -1.902951      2.898957     -1.247407
H	      4.29726      9.35607      7.89205        -0.884248      0.063208      0.190634
H	      9.62015      7.79114      8.61054         2.117570      0.845868      1.995259
H	      7.93531      9.50502      4.27426        -0.525410     -0.242251     -0.529697
H	      6.25117     11.70851      7.97995         0.237423     -0.794548     -0.424901
H	     11.53125      8.07437      6.05120         0.479240     -0.477267      0.175759
H	      6.98398      9.32143      8.83588        -4.491129      0.387278      0.275928
H	      7.95516     11.52824      6.05538         0.086510      0.616159      0.450488
H	      9.49473      9.49353      5.04238         0.189713     -0.053212     -0.530372
H	      9.15970     11.26202      4.71298         0.466379      0.786826      0.079021
H	     11.17985      9.20830      4.26720        -0.232317      0.002537      0.168294
H	      9.89449     10.73759      6.38965        -0.155421      1.211611     -0.185464
H	     10.93916      9.85291      6.33711        -0.029545     -0.086313     -0.089307
H	      7.88469      8.00189      8.60727        -0.055318      0.729825      0.085233
H	      6.47939      8.06801      9.75691        -3.430859     -2.463240      0.923833
H	      7.71168      9.53172      8.55455         2.550716      3.207185     -0.883414
H	      6.69278      6.41971      8.39720         0.809475     -2.673611      1.538401
H	      9.32789     11.50858      7.91695         0.196826     -0.130932      0.007151
H	     12.45705      7.93001      4.29168        -0.113052     -0.334611     -0.115760
H	     12.48395     11.08371      7.38563        -0.223748     -0.176134      0.013074
H	     12.46252      8.20022      7.94427         0.650711     -0.359262     -0.155586
H	     15.79050     13.38762      7.89538         0.182206      0.157432     -0.003321
H	      7.60138     12.38080      4.59886        -0.086971      0.375530     -0.421271
H	     11.02364     12.40529      7.23183         0.669659     -0.026400      0.497391
H	      0.81281      1.55297      9.43425        -0.094039      0.041468      0.127116
H	      7.79733      3.55281     11.44618         0.165694     -0.622831     -0.007255
H	     11.53838      3.42781      7.85568        -0.127745      0.168149      0.302207
H	     11.14538      0.92036      9.47808        -0.308364     -0.269658      0.236607
H	     12.67978      0.76459      7.87246        -0.154685      0.156642      0.611901
H	      3.33301      4.75910      8.41085         0.015016      0.196677     -0.237637
H	      3.58966      7.60761     11.29140        -0.780780      0.002480     -0.398231
H	      6.08380      7.63495      8.28694        -3.203284      3.235481     -2.013558
H	      6.21774      6.12355     11.00784        -0.539200      0.036823     -0.694140
H	      6.25188      4.96586      9.67163         0.039121     -0.667841      0.415056
H	      4.75165      4.16632      9.27223        -0.003774     -0.167420     -0.216867
H	      6.86852      4.76535     11.98810         0.252364      0.630778     -0.244318
H	      4.96619      6.30165      9.69555        -0.543167     -0.552726      0.641813
H	      6.68393      7.93354     11.63351        -0.838828      0.066020      0.288742
H	      9.14236      6.99844      8.73965         1.873375     -1.783741      0.794046
H	      4.40149      7.85366      9.41312        -1.341601      0.383277      0.073858
H	      7.69744      6.51838      9.69011         1.048924     -0.825784      1.776208
H	      5.73900      8.64474      6.08415         0.398471      0.076402      0.314077
H	      7.63793      6.92409      5.54497        -0.826506     -0.920813      0.297748
H	      7.88715      4.22197      9.49546         0.237770     -0.217442     -0.199294
H	      8.18440      8.19604      7.60082         2.002802      1.994219     -0.873759
H	     10.52840      7.44153      7.17874         1.472091     -0.423683     -0.190056
H	     11.68288      6.21434      7.78887         0.112277      0.204502      0.909526
H	      9.48938      4.95809      9.70433         0.409370     -0.557177     -0.118862
H	      9.79357      6.24865     10.80849         0.000672      0.029210      0.839866
H	     10.92569      5.82527      9.45012         0.160056      0.031256     -0.510933
H	     11.58884      6.59135     10.75644        -0.208470      0.093327      1.189512
H	      9.48246      4.23377      7.96147         0.011191      0.208184     -0.580972