16
Lattice="27.543097500000002 0.0 0.0 0.0 25.10449499 0.0 0.0 0.0 20.0014447" Properties=species:S:1:pos:R:3:forces:R:3 pol="141.097444 1.931205 -0.006625 1.931205 118.301001 0.01463 -0.006625 0.01463 58.279219" energy=0 pbc="T T T"
O        0.32478721       2.68483874       0.00063262       0.00000000       0.00000000       0.00000000
N        0.62186049      -1.47639283      -0.00042193       0.00000000       0.00000000       0.00000000
N       -2.19199338       0.79217458       0.00038923       0.00000000       0.00000000       0.00000000
N       -1.80374987      -1.42102400      -0.00019609       0.00000000       0.00000000       0.00000000
N        1.51449707       0.71646871       0.00004209       0.00000000       0.00000000       0.00000000
N        2.91202559      -1.16110654      -0.00052336       0.00000000       0.00000000       0.00000000
C       -0.83166580       0.54978617       0.00020759       0.00000000       0.00000000       0.00000000
C       -0.56675779      -0.82704917      -0.00015774       0.00000000       0.00000000       0.00000000
C        0.27886504       1.46396939       0.00033529       0.00000000       0.00000000       0.00000000
C        1.64815672      -0.64839048      -0.00030312       0.00000000       0.00000000       0.00000000
C       -2.74020286      -0.40005108       0.00014156       0.00000000       0.00000000       0.00000000
H        2.33774426       1.31399200       0.00012188       0.00000000       0.00000000       0.00000000
H       -1.97637036      -2.41965625      -0.00042836       0.00000000       0.00000000       0.00000000
H       -3.80631687      -0.60584755       0.00018624       0.00000000       0.00000000       0.00000000
H        3.01101377      -2.16607851      -0.00081208       0.00000000       0.00000000       0.00000000
H        3.73678063      -0.58154823      -0.00049973       0.00000000       0.00000000       0.00000000
15
Lattice="26.15825477 0.0 0.0 0.0 25.22614291 0.0 0.0 0.0 20.00313471" Properties=species:S:1:pos:R:3:forces:R:3 pol="127.718832 -2.768374 0.009196 -2.768374 113.500684 -0.0363 0.009196 -0.0363 55.803383" energy=0 pbc="T T T"
N       -1.24051039      -1.42980669       0.00077073       0.00000000       0.00000000       0.00000000
N       -2.05054779       0.67246774      -0.00063644       0.00000000       0.00000000       0.00000000
N        0.05312188       1.92620635      -0.00119739       0.00000000       0.00000000       0.00000000
N        1.96992863       0.44626109      -0.00007619       0.00000000       0.00000000       0.00000000
N        1.80559192      -1.87371947       0.00135601       0.00000000       0.00000000       0.00000000
C       -0.20106781      -0.51537147       0.00030238       0.00000000       0.00000000       0.00000000
C       -0.67752213       0.80423095      -0.00057641       0.00000000       0.00000000       0.00000000
C        1.20366159      -0.66143090       0.00053436       0.00000000       0.00000000       0.00000000
C       -2.32309857      -0.68037000       0.00018550       0.00000000       0.00000000       0.00000000
C        1.36414213       1.64637292      -0.00088396       0.00000000       0.00000000       0.00000000
H       -2.71836952       1.43457195      -0.00118204       0.00000000       0.00000000       0.00000000
H       -3.34298167      -1.05381035       0.00031549       0.00000000       0.00000000       0.00000000
H        2.03565328       2.50833393      -0.00131847       0.00000000       0.00000000       0.00000000
H        2.81527310      -1.92173867       0.00148074       0.00000000       0.00000000       0.00000000
H        1.25064364      -2.71780898       0.00181624       0.00000000       0.00000000       0.00000000
15
Lattice="25.97838529 0.0 0.0 0.0 24.563752649999998 0.0 0.0 0.0 21.75867325" Properties=species:S:1:pos:R:3:forces:R:3 pol="113.701587 -6.289518 0.002404 -6.289518 89.938529 0.008748 0.002404 0.008748 51.7533" energy=0 pbc="T T T"
O       -1.44833639       1.85263134       0.00034269       0.00000000       0.00000000       0.00000000
O        2.88169223       0.31098805       0.00022662       0.00000000       0.00000000       0.00000000
N        0.69482374       1.05182386       0.00021534       0.00000000       0.00000000       0.00000000
N        1.15530520      -1.21005329      -0.00008454       0.00000000       0.00000000       0.00000000
C       -1.14346542      -0.52102274      -0.00031004       0.00000000       0.00000000       0.00000000
C       -0.70569411       0.87766966       0.00014247       0.00000000       0.00000000       0.00000000
C       -0.19284046      -1.48919128      -0.00050559       0.00000000       0.00000000       0.00000000
C       -2.61315170      -0.80084099      -0.00026119       0.00000000       0.00000000       0.00000000
C        1.68272248       0.07892936       0.00017007       0.00000000       0.00000000       0.00000000
H       -0.44584137      -2.54936252      -0.00105359       0.00000000       0.00000000       0.00000000
H        1.02528062       2.01439013       0.00046904       0.00000000       0.00000000       0.00000000
H        1.84263470      -1.95501197       0.00016509       0.00000000       0.00000000       0.00000000
H       -3.09669306      -0.35214244      -0.87924842       0.00000000       0.00000000       0.00000000
H       -3.09624893      -0.35297775       0.87942483       0.00000000       0.00000000       0.00000000
H       -2.81230578      -1.87950877      -0.00064148       0.00000000       0.00000000       0.00000000
13
Lattice="25.45991481 0.0 0.0 0.0 24.717877520000002 0.0 0.0 0.0 20.00018619" Properties=species:S:1:pos:R:3:forces:R:3 pol="111.321159 0.415243 -0.000647 0.415243 84.293206 0.000499 -0.000647 0.000499 47.257245" energy=0 pbc="T T T"
O        2.25717219       1.11899487       0.00007421       0.00000000       0.00000000       0.00000000
N       -0.05212039       1.05374314      -0.00000315       0.00000000       0.00000000       0.00000000
N       -2.33344118       0.90843742      -0.00001189       0.00000000       0.00000000       0.00000000
N        1.25586945      -0.93226730      -0.00010596       0.00000000       0.00000000       0.00000000
C       -1.12766946       0.27999033       0.00001150       0.00000000       0.00000000       0.00000000
C       -1.08477234      -1.15709394       0.00006348       0.00000000       0.00000000       0.00000000
C        1.20130101       0.50009572      -0.00002797       0.00000000       0.00000000       0.00000000
C        0.15618861      -1.72034836      -0.00001852       0.00000000       0.00000000       0.00000000
H        2.19074799      -1.32746384      -0.00009976       0.00000000       0.00000000       0.00000000
H       -1.98257152      -1.76916862       0.00007211       0.00000000       0.00000000       0.00000000
H        0.31945445      -2.79758510       0.00001795       0.00000000       0.00000000       0.00000000
H       -3.20274262       0.39671069       0.00008023       0.00000000       0.00000000       0.00000000
H       -2.34470788       1.92029242       0.00001195       0.00000000       0.00000000       0.00000000
12
Lattice="24.59697143 0.0 0.0 0.0 24.80070552 0.0 0.0 0.0 20.00109851" Properties=species:S:1:pos:R:3:forces:R:3 pol="98.095779 -3.105713 0.004207 -3.105713 76.952444 -0.002715 0.004207 -0.002715 42.730171" energy=0 pbc="T T T"
O        2.30660862       0.95581389       0.00028037       0.00000000       0.00000000       0.00000000
O       -2.29036281       1.08477419      -0.00070920       0.00000000       0.00000000       0.00000000
N       -0.00131842       0.98769392       0.00016762       0.00000000       0.00000000       0.00000000
N        1.14223384      -1.02711147      -0.00025823       0.00000000       0.00000000       0.00000000
C        1.23755999       0.36803760       0.00008458       0.00000000       0.00000000       0.00000000
C       -1.28503475       0.38743414      -0.00005961       0.00000000       0.00000000       0.00000000
C       -0.04822598      -1.70941098       0.00015927       0.00000000       0.00000000       0.00000000
C       -1.24082486      -1.06801520       0.00033611       0.00000000       0.00000000       0.00000000
H        0.01703843       2.00535712       0.00018951       0.00000000       0.00000000       0.00000000
H        2.03019490      -1.51617420       0.00012023       0.00000000       0.00000000       0.00000000
H       -2.18033996      -1.61088954       0.00038931       0.00000000       0.00000000       0.00000000
H        0.03588580      -2.79534840       0.00024348       0.00000000       0.00000000       0.00000000
10
Lattice="22.40597929 0.0 0.0 0.0 24.294282250000002 0.0 0.0 0.0 21.74898" Properties=species:S:1:pos:R:3:forces:R:3 pol="47.323343 -1.563686 -0.0 -1.563686 49.965867 -0.0 -0.0 -0.0 34.540144" energy=0 pbc="T T T"
C        0.00206954       0.55490442       0.00000000       0.00000000       0.00000000       0.00000000
O        1.17906485       0.84569206       0.00000000       0.00000000       0.00000000       0.00000000
O       -0.99421921       1.48564968       0.00000000       0.00000000       0.00000000       0.00000000
C       -0.56417983      -0.86200577       0.00000000       0.00000000       0.00000000       0.00000000
N        0.40865652      -1.93630805       0.00000000       0.00000000       0.00000000       0.00000000
H       -0.55393662       2.35797420       0.00000000       0.00000000       0.00000000       0.00000000
H       -1.22691444      -0.95399172       0.87449000       0.00000000       0.00000000       0.00000000
H       -1.22691444      -0.95399172      -0.87449000       0.00000000       0.00000000       0.00000000
H        1.02053322      -1.85198020       0.81249227       0.00000000       0.00000000       0.00000000
H        1.02053322      -1.85198020      -0.81249227       0.00000000       0.00000000       0.00000000
13
Lattice="23.12819034 0.0 0.0 0.0 23.01618833 0.0 0.0 0.0 23.91560571" Properties=species:S:1:pos:R:3:forces:R:3 pol="54.16443 4.868157 -3.700246 4.868157 52.979032 4.871735 -3.700246 4.871735 61.031792" energy=0 pbc="T T T"
O        1.47566804       0.84614980      -0.76257693       0.00000000       0.00000000       0.00000000
O        0.54262443       1.24033144       1.22149013       0.00000000       0.00000000       0.00000000
N       -1.38492605      -0.65216941       0.96221402       0.00000000       0.00000000       0.00000000
C       -0.26564114      -0.70738751       0.02941794       0.00000000       0.00000000       0.00000000
C       -0.77657348      -0.88978522      -1.40773868       0.00000000       0.00000000       0.00000000
C        0.59060268       0.55202622       0.22953768       0.00000000       0.00000000       0.00000000
H        0.43832870      -1.54042667       0.24844807       0.00000000       0.00000000       0.00000000
H       -1.42249891      -1.77585689      -1.45267376       0.00000000       0.00000000       0.00000000
H        0.03289368      -1.06013146      -2.13648225       0.00000000       0.00000000       0.00000000
H       -1.37216166      -0.02320603      -1.72034576       0.00000000       0.00000000       0.00000000
H       -1.65252230      -1.58396673       1.27305308       0.00000000       0.00000000       0.00000000
H       -1.11159982      -0.10236502       1.77912346       0.00000000       0.00000000       0.00000000
H        1.34537439       0.23016786      -1.50522801       0.00000000       0.00000000       0.00000000
19
Lattice="24.87790693 0.0 0.0 0.0 24.242511800000003 0.0 0.0 0.0 23.97826761" Properties=species:S:1:pos:R:3:forces:R:3 pol="83.012039 -4.068362 -1.856846 -4.068362 83.010886 -1.688636 -1.856846 -1.688636 73.189808" energy=0 pbc="T T T"
O       -1.26746366      -1.42508185       0.34885942       0.00000000       0.00000000       0.00000000
O       -2.10941928       0.66361195       0.47056981       0.00000000       0.00000000       0.00000000
N       -0.13583637       1.75197005      -1.03705298       0.00000000       0.00000000       0.00000000
C        1.33284495      -0.03418707      -0.14426536       0.00000000       0.00000000       0.00000000
C       -0.05145864       0.31491439      -0.78059350       0.00000000       0.00000000       0.00000000
C        1.72493674      -1.50791874      -0.27181724       0.00000000       0.00000000       0.00000000
C        1.43906266       0.47477555       1.29441307       0.00000000       0.00000000       0.00000000
C       -1.24382882      -0.09206631       0.07640953       0.00000000       0.00000000       0.00000000
H        2.03682751       0.55324746      -0.75692911       0.00000000       0.00000000       0.00000000
H       -0.14034895      -0.29022245      -1.70417214       0.00000000       0.00000000       0.00000000
H        1.64040608      -1.85921464      -1.31081442       0.00000000       0.00000000       0.00000000
H        1.09664237      -2.15489552       0.35263733       0.00000000       0.00000000       0.00000000
H        2.76848765      -1.64657333       0.04333458       0.00000000       0.00000000       0.00000000
H        0.80350188      -0.11385881       1.97340988       0.00000000       0.00000000       0.00000000
H        2.47190008       0.39360617       1.65955977       0.00000000       0.00000000       0.00000000
H        1.13497033       1.52765295       1.35657861       0.00000000       0.00000000       0.00000000
H       -1.07960705       2.08761628      -0.84030628       0.00000000       0.00000000       0.00000000
H        0.09199642       1.96655099      -2.00485773       0.00000000       0.00000000       0.00000000
H       -2.06819968      -1.56904731       0.89061769       0.00000000       0.00000000       0.00000000
22
Lattice="25.5174019 0.0 0.0 0.0 24.87894803 0.0 0.0 0.0 23.449755" Properties=species:S:1:pos:R:3:forces:R:3 pol="94.803953 0.16557 -2.593251 0.16557 93.00531 -0.401893 -2.593251 -0.401893 86.032783" energy=0 pbc="T T T"
O        1.33869502      -1.34244896       1.18619167       0.00000000       0.00000000       0.00000000
O        1.89050113      -0.87644580      -0.95706957       0.00000000       0.00000000       0.00000000
N        1.70612875       1.79404639       0.13644542       0.00000000       0.00000000       0.00000000
C       -1.83535990       0.15321061      -0.42779053       0.00000000       0.00000000       0.00000000
C       -0.54791205       0.97170266      -0.66595401       0.00000000       0.00000000       0.00000000
C        0.64635707       0.78396919       0.29801577       0.00000000       0.00000000       0.00000000
C       -2.44687416       0.40837999       0.95573155       0.00000000       0.00000000       0.00000000
C       -1.67029135      -1.34873881      -0.69087711       0.00000000       0.00000000       0.00000000
C        1.35046583      -0.55146828       0.07980385       0.00000000       0.00000000       0.00000000
H       -2.55374201       0.53249361      -1.17508518       0.00000000       0.00000000       0.00000000
H       -0.18182839       0.79334978      -1.68997622       0.00000000       0.00000000       0.00000000
H       -0.81201908       2.04095113      -0.60851147       0.00000000       0.00000000       0.00000000
H        0.30448744       0.82772055       1.34052775       0.00000000       0.00000000       0.00000000
H       -1.81865298      -0.00163191       1.75977878       0.00000000       0.00000000       0.00000000
H       -2.58172297       1.48296187       1.14670954       0.00000000       0.00000000       0.00000000
H       -3.43199045      -0.07139802       1.03926645       0.00000000       0.00000000       0.00000000
H       -1.20832477      -1.53984491      -1.66918638       0.00000000       0.00000000       0.00000000
H       -1.04924987      -1.83044329       0.07726935       0.00000000       0.00000000       0.00000000
H       -2.64786022      -1.85099898      -0.67493434       0.00000000       0.00000000       0.00000000
H        1.30684073       2.72807690       0.23835166       0.00000000       0.00000000       0.00000000
H        2.08541145       1.73013581      -0.81107852       0.00000000       0.00000000       0.00000000
H        1.83386811      -2.15087113       0.94519671       0.00000000       0.00000000       0.00000000
20
Lattice="27.31261045 0.0 0.0 0.0 24.41703733 0.0 0.0 0.0 23.05773992" Properties=species:S:1:pos:R:3:forces:R:3 pol="119.748137 -2.066476 1.351231 -2.066476 97.946299 -4.008343 1.351231 -4.008343 87.426197" energy=0 pbc="T T T"
S        2.22007445       0.59713971       0.59719627       0.00000000       0.00000000       0.00000000
O       -1.80950883       1.59443588      -0.55047623       0.00000000       0.00000000       0.00000000
O       -3.29776643       0.09526637       0.24449434       0.00000000       0.00000000       0.00000000
N       -1.42480703      -1.86289537       0.49459816       0.00000000       0.00000000       0.00000000
C        0.09101458      -0.50263494      -0.91490798       0.00000000       0.00000000       0.00000000
C       -0.94433460      -0.50592758       0.23342469       0.00000000       0.00000000       0.00000000
C        1.12608220       0.62354716      -0.86140918       0.00000000       0.00000000       0.00000000
C       -2.14880285       0.38623464      -0.01923216       0.00000000       0.00000000       0.00000000
C        3.28539180      -0.81526857       0.20024000       0.00000000       0.00000000       0.00000000
H        0.59966270      -1.47603508      -0.87547363       0.00000000       0.00000000       0.00000000
H       -0.42830974      -0.47692173      -1.88555360       0.00000000       0.00000000       0.00000000
H       -0.43922697      -0.05269294       1.11378584       0.00000000       0.00000000       0.00000000
H        0.63922650       1.60634544      -0.82788473       0.00000000       0.00000000       0.00000000
H        1.75637228       0.60544713      -1.76229918       0.00000000       0.00000000       0.00000000
H       -2.36762084      -1.81906293       0.88533584       0.00000000       0.00000000       0.00000000
H       -0.82242155      -2.32730484       1.17218632       0.00000000       0.00000000       0.00000000
H        2.72463564      -1.75646817       0.14423181       0.00000000       0.00000000       0.00000000
H        4.01484402      -0.89386243       1.01498780       0.00000000       0.00000000       0.00000000
H        3.82461083      -0.64646684      -0.74114433       0.00000000       0.00000000       0.00000000
H       -2.64721938       2.08973249      -0.63633644       0.00000000       0.00000000       0.00000000
22
Lattice="25.91014121 0.0 0.0 0.0 24.27042629 0.0 0.0 0.0 23.51358669" Properties=species:S:1:pos:R:3:forces:R:3 pol="96.89524 2.191214 1.875682 2.191214 89.500838 -0.101823 1.875682 -0.101823 87.635849" energy=0 pbc="T T T"
O        1.82916637       0.89699945      -1.39848263       0.00000000       0.00000000       0.00000000
O        2.21638130       0.76172099       0.82516016       0.00000000       0.00000000       0.00000000
N        0.67288992      -1.62163180       1.00903383       0.00000000       0.00000000       0.00000000
C       -0.80820832      -0.23558676      -0.45300963       0.00000000       0.00000000       0.00000000
C        0.62481523      -0.79292424      -0.18967893       0.00000000       0.00000000       0.00000000
C       -1.31406552       0.61034695       0.72915755       0.00000000       0.00000000       0.00000000
C       -1.75356510      -1.39052320      -0.79615755       0.00000000       0.00000000       0.00000000
C       -2.59121379       1.39776573       0.42833231       0.00000000       0.00000000       0.00000000
C        1.63919915       0.35329644      -0.16201816       0.00000000       0.00000000       0.00000000
H       -0.72699942       0.42385391      -1.33306372       0.00000000       0.00000000       0.00000000
H        0.88187488      -1.42102094      -1.05672019       0.00000000       0.00000000       0.00000000
H       -0.52761465       1.31960411       1.03406469       0.00000000       0.00000000       0.00000000
H       -1.48489771      -0.05130426       1.59341749       0.00000000       0.00000000       0.00000000
H       -1.40253478      -1.93719999      -1.68306263       0.00000000       0.00000000       0.00000000
H       -1.80938152      -2.10070866       0.03929980       0.00000000       0.00000000       0.00000000
H       -2.76591187      -1.02657217      -1.01345046       0.00000000       0.00000000       0.00000000
H       -2.45284202       2.06263152      -0.43694879       0.00000000       0.00000000       0.00000000
H       -2.87602363       2.02341497       1.28499960       0.00000000       0.00000000       0.00000000
H       -3.44138374       0.73827543       0.20882072       0.00000000       0.00000000       0.00000000
H        0.77344760      -1.02204494       1.83052406       0.00000000       0.00000000       0.00000000
H        1.50712886      -2.20779477       0.99421201       0.00000000       0.00000000       0.00000000
H        2.46875747       1.62627551      -1.27850339       0.00000000       0.00000000       0.00000000
14
Lattice="23.97295595 0.0 0.0 0.0 24.29425096 0.0 0.0 0.0 22.91136819" Properties=species:S:1:pos:R:3:forces:R:3 pol="61.189588 -1.85099 2.568099 -1.85099 64.761045 2.995198 2.568099 2.995198 56.193965" energy=0 pbc="T T T"
O        1.89793149       1.01253354      -0.29823387       0.00000000       0.00000000       0.00000000
O       -1.06014299       1.41504034       0.81942799       0.00000000       0.00000000       0.00000000
O       -1.57027429       0.20451944      -1.02560418       0.00000000       0.00000000       0.00000000
N       -0.18907650      -2.02020399       0.26374889       0.00000000       0.00000000       0.00000000
C        0.16912999      -0.61853526       0.45822143       0.00000000       0.00000000       0.00000000
C        1.47419062      -0.34438117      -0.32402908       0.00000000       0.00000000       0.00000000
C       -0.91218175       0.35278059      -0.01663313       0.00000000       0.00000000       0.00000000
H        0.35389383      -0.44335328       1.52846629       0.00000000       0.00000000       0.00000000
H        2.24148178      -1.03467205       0.06295606       0.00000000       0.00000000       0.00000000
H        1.30350997      -0.58582654      -1.38290190       0.00000000       0.00000000       0.00000000
H       -0.58867702      -2.13464579      -0.67095014       0.00000000       0.00000000       0.00000000
H       -0.91558238      -2.29791029       0.92355346       0.00000000       0.00000000       0.00000000
H        2.13343661       1.24556349       0.61310833       0.00000000       0.00000000       0.00000000
H       -1.73147417       1.99634067       0.40945081       0.00000000       0.00000000       0.00000000
17
Lattice="24.48134719 0.0 0.0 0.0 24.19281416 0.0 0.0 0.0 23.7843091" Properties=species:S:1:pos:R:3:forces:R:3 pol="72.541343 -2.093584 -0.803966 -2.093584 75.414548 -2.808772 -0.803966 -2.808772 68.766245" energy=0 pbc="T T T"
O       -1.65718509      -1.22302604       0.04721335       0.00000000       0.00000000       0.00000000
O        1.34732421      -1.58125547       0.62779407       0.00000000       0.00000000       0.00000000
O        1.77545662       0.00905718      -0.92482755       0.00000000       0.00000000       0.00000000
N        0.31664279       1.86972955       0.76155275       0.00000000       0.00000000       0.00000000
C       -1.34017508       0.17077973       0.07552252       0.00000000       0.00000000       0.00000000
C        0.04847552       0.43502831       0.73822014       0.00000000       0.00000000       0.00000000
C       -1.44766227       0.67401224      -1.35376542       0.00000000       0.00000000       0.00000000
C        1.14398213      -0.37049190       0.04036969       0.00000000       0.00000000       0.00000000
H       -0.02200442       0.07843169       1.77713890       0.00000000       0.00000000       0.00000000
H       -2.06084958       0.72332245       0.70557074       0.00000000       0.00000000       0.00000000
H       -1.28756010       1.75818403      -1.39734676       0.00000000       0.00000000       0.00000000
H       -2.45507021       0.46305236      -1.73337553       0.00000000       0.00000000       0.00000000
H       -0.71906998       0.17724615      -2.00717020       0.00000000       0.00000000       0.00000000
H        0.67721538       2.15643217      -0.15122252       0.00000000       0.00000000       0.00000000
H        1.05384915       2.07760867       1.43531140       0.00000000       0.00000000       0.00000000
H       -1.58177474      -1.58017805       0.94606798       0.00000000       0.00000000       0.00000000
H        2.02627698      -2.03638199       0.09063624       0.00000000       0.00000000       0.00000000
14
Lattice="25.129582409999998 0.0 0.0 0.0 24.36310048 0.0 0.0 0.0 22.95792664" Properties=species:S:1:pos:R:3:forces:R:3 pol="84.136476 4.567278 -4.909937 4.567278 78.388145 -4.894536 -4.909937 -4.894536 67.285689" energy=0 pbc="T T T"
S        2.20015918       0.74867706      -0.13369327       0.00000000       0.00000000       0.00000000
O       -2.34370509       0.30532420       0.69015062       0.00000000       0.00000000       0.00000000
O       -1.00680852       1.21865702      -0.88562702       0.00000000       0.00000000       0.00000000
N       -0.82472560      -1.98917107       0.36372139       0.00000000       0.00000000       0.00000000
C       -0.18361761      -0.66750367       0.44374432       0.00000000       0.00000000       0.00000000
C        1.07930411      -0.65992283      -0.42189522       0.00000000       0.00000000       0.00000000
C       -1.18320462       0.38918956      -0.02011883       0.00000000       0.00000000       0.00000000
H        0.10223848      -0.37092951       1.47429060       0.00000000       0.00000000       0.00000000
H        1.67831067      -1.54656394      -0.17300301       0.00000000       0.00000000       0.00000000
H        0.81561647      -0.72477985      -1.48363604       0.00000000       0.00000000       0.00000000
H       -1.72172430      -1.97751453       0.84946665       0.00000000       0.00000000       0.00000000
H       -0.23923863      -2.68247421       0.83029453       0.00000000       0.00000000       0.00000000
H        1.39397022       1.68062627      -0.69082245       0.00000000       0.00000000       0.00000000
H       -2.92942323       1.00457200       0.33988188       0.00000000       0.00000000       0.00000000
17
Lattice="25.86155096 0.0 0.0 0.0 24.06736873 0.0 0.0 0.0 23.04630174" Properties=species:S:1:pos:R:3:forces:R:3 pol="84.83492 -1.737306 1.412263 -1.737306 76.089324 -2.681646 1.412263 -2.681646 63.664594" energy=0 pbc="T T T"
O        2.23264667      -1.02934664       0.30553832       0.00000000       0.00000000       0.00000000
O        1.86641277       1.07778198      -0.43477248       0.00000000       0.00000000       0.00000000
N       -0.76718458       1.07603303       0.56849597       0.00000000       0.00000000       0.00000000
C        0.03520697      -0.15151304       0.59747980       0.00000000       0.00000000       0.00000000
C       -0.73603010      -1.19017807      -0.26593118       0.00000000       0.00000000       0.00000000
C       -2.15249450      -0.60426871      -0.31906808       0.00000000       0.00000000       0.00000000
C       -1.88020953       0.89825191      -0.38048727       0.00000000       0.00000000       0.00000000
C        1.45034121       0.06514437       0.09173156       0.00000000       0.00000000       0.00000000
H        0.12929794      -0.52979258       1.63098832       0.00000000       0.00000000       0.00000000
H       -0.68312188      -2.19911528       0.15811727       0.00000000       0.00000000       0.00000000
H       -0.30991103      -1.23080527      -1.27917649       0.00000000       0.00000000       0.00000000
H       -2.73242118      -0.96883057      -1.17604346       0.00000000       0.00000000       0.00000000
H       -2.70454700      -0.84922873       0.59982252       0.00000000       0.00000000       0.00000000
H       -1.61474464       1.18976714      -1.41531342       0.00000000       0.00000000       0.00000000
H       -2.74654631       1.50118456      -0.07319737       0.00000000       0.00000000       0.00000000
H       -0.17607840       1.86825345       0.31635107       0.00000000       0.00000000       0.00000000
H        3.11500465      -0.80576562      -0.04949569       0.00000000       0.00000000       0.00000000
17
Lattice="26.43895671 0.0 0.0 0.0 24.47126373 0.0 0.0 0.0 23.23212377" Properties=species:S:1:pos:R:3:forces:R:3 pol="87.382608 -1.624736 5.320894 -1.624736 76.54493 -1.712382 5.320894 -1.712382 74.292341" energy=0 pbc="T T T"
O        1.92911653      -1.64249327      -0.06707647       0.00000000       0.00000000       0.00000000
O        0.43106759      -0.97245666      -1.62534814       0.00000000       0.00000000       0.00000000
O       -1.51672540      -0.40507432       1.60677563       0.00000000       0.00000000       0.00000000
N        1.96770495       1.42042166       0.01537003       0.00000000       0.00000000       0.00000000
N       -2.79788155       0.40739973      -0.08736329       0.00000000       0.00000000       0.00000000
C        0.87764375       0.47398410       0.29884433       0.00000000       0.00000000       0.00000000
C       -0.47263693       1.14611262       0.07678073       0.00000000       0.00000000       0.00000000
C        1.00679295      -0.77723618      -0.57247230       0.00000000       0.00000000       0.00000000
C       -1.62406801       0.29195436       0.60300846       0.00000000       0.00000000       0.00000000
H        0.95188374       0.16869355       1.35073100       0.00000000       0.00000000       0.00000000
H       -0.47182518       2.09388824       0.63516392       0.00000000       0.00000000       0.00000000