 vasp.5.4.4.18Apr17-6-g9f103f2a35 (build Sep 15 2022 14:38:32) complex          
  
 executed on             LinuxIFC date 2023.02.14  14:57:16
 running on   96 total cores
 distrk:  each k-point on   96 cores,    1 groups
 distr:  one band on NCORES_PER_BAND=   8 cores,   12 groups


--------------------------------------------------------------------------------------------------------


 INCAR:
 POTCAR:   PAW_GGA W 21Dec2000                    
 POTCAR:   PAW_GGA H 07Jul1998                    
 POTCAR:   PAW_GGA W 21Dec2000                    
   VRHFIN =W : 6s5d                                                             
   LEXCH  = 91                                                                  
   EATOM  =   205.1475 eV,   15.0779 Ry                                         
                                                                                
   TITEL  = PAW_GGA W 21Dec2000                                                 
   LULTRA =        F    use ultrasoft PP ?                                      
   IUNSCR =        1    unscreen: 0-lin 1-nonlin 2-no                           
   RPACOR =    2.330    partial core radius                                     
   POMASS =  183.850; ZVAL   =    6.000    mass and valenz                      
   RCORE  =    2.750    outmost cutoff radius                                   
   RWIGS  =    2.750; RWIGS  =    1.455    wigner-seitz radius (au A)           
   ENMAX  =  223.072; ENMIN  =  167.304 eV                                      
   RCLOC  =    2.147    cutoff for local pot                                    
   LCOR   =        T    correct aug charges                                     
   LPAW   =        T    paw PP                                                  
   EAUG   =  373.438                                                            
   DEXC   =    -.031                                                            
   RMAX   =    3.087    core radius for proj-oper                               
   RAUG   =    1.300    factor for augmentation sphere                          
   RDEP   =    2.886    core radius for depl-charge                             
   QCUT   =   -4.049; QGAM   =    8.098    optimization parameters              
                                                                                
   Description                                                                  
     l     E      TYP  RCUT    TYP  RCUT                                        
     2   .000     23  2.500                                                     
     2   .000     23  2.500                                                     
     0   .000     23  2.500                                                     
     0   .000     23  2.500                                                     
     1   .200     23  2.750                                                     
     1  2.000     23  2.750                                                     
     3   .000      7   .000                                                     
  local pseudopotential read in
  partial core-charges read in
  atomic valenz-charges read in
  non local Contribution for L=           2  read in
    real space projection operators read in
  non local Contribution for L=           2  read in
    real space projection operators read in
  non local Contribution for L=           0  read in
    real space projection operators read in
  non local Contribution for L=           0  read in
    real space projection operators read in
  non local Contribution for L=           1  read in
    real space projection operators read in
  non local Contribution for L=           1  read in
    real space projection operators read in
    PAW grid and wavefunctions read in
 
   number of l-projection  operators is LMAX  =           6
   number of lm-projection operators is LMMAX =          18
 
 POTCAR:   PAW_GGA H 07Jul1998                    
   VRHFIN =H: ultrasoft test                                                    
   LEXCH  = 91                                                                  
   EATOM  =    12.5313 eV,     .9210 Ry                                         
                                                                                
   TITEL  = PAW_GGA H 07Jul1998                                                 
   LULTRA =        F    use ultrasoft PP ?                                      
   IUNSCR =        0    unscreen: 0-lin 1-nonlin 2-no                           
   RPACOR =     .000    partial core radius                                     
   POMASS =    1.000; ZVAL   =    1.000    mass and valenz                      
   RCORE  =    1.100    outmost cutoff radius                                   
   RWIGS  =     .700; RWIGS  =     .370    wigner-seitz radius (au A)           
   ENMAX  =  250.000; ENMIN  =  200.000 eV                                      
   RCLOC  =     .701    cutoff for local pot                                    
   LCOR   =        T    correct aug charges                                     
   LPAW   =        T    paw PP                                                  
   EAUG   =  400.000                                                            
   RMAX   =    2.174    core radius for proj-oper                               
   RAUG   =    1.200    factor for augmentation sphere                          
   RDEP   =    1.112    core radius for depl-charge                             
   QCUT   =   -5.749; QGAM   =   11.498    optimization parameters              
                                                                                
   Description                                                                  
     l     E      TYP  RCUT    TYP  RCUT                                        
     0   .000     23  1.100                                                     
     0   .500     23  1.100                                                     
     1  -.300     23  1.100                                                     
  local pseudopotential read in
  atomic valenz-charges read in
  non local Contribution for L=           0  read in
    real space projection operators read in
  non local Contribution for L=           0  read in
    real space projection operators read in
  non local Contribution for L=           1  read in
    real space projection operators read in
    PAW grid and wavefunctions read in
 
   number of l-projection  operators is LMAX  =           3
   number of lm-projection operators is LMMAX =           5
 
 Optimization of the real space projectors (new method)

 maximal supplied QI-value         = 13.61
 optimisation between [QCUT,QGAM] = [ 11.43, 22.86] = [ 36.58,146.31] Ry 
 Optimized for a Real-space Cutoff    1.56 Angstroem

   l    n(q)    QCUT    max X(q) W(low)/X(q) W(high)/X(q)  e(spline) 
   2     10    11.429     3.599    0.58E-05    0.18E-04    0.68E-07
   2     10    11.429    52.101    0.22E-03    0.65E-03    0.11E-05
   0     11    11.429    21.657    0.14E-04    0.52E-05    0.64E-08
   0     11    11.429    67.324    0.35E-04    0.62E-04    0.21E-06
   1     10    11.429     8.355    0.27E-04    0.28E-04    0.35E-07
   1     10    11.429    11.129    0.58E-04    0.12E-03    0.19E-06
 Optimization of the real space projectors (new method)

 maximal supplied QI-value         = 34.20
 optimisation between [QCUT,QGAM] = [ 11.29, 22.57] = [ 35.68,142.71] Ry 
 Optimized for a Real-space Cutoff    1.16 Angstroem

   l    n(q)    QCUT    max X(q) W(low)/X(q) W(high)/X(q)  e(spline) 
   0      8    11.287     4.435    0.39E-04    0.70E-04    0.34E-07
   0      8    11.287    16.011    0.38E-03    0.69E-03    0.15E-06
   1      7    11.287     4.617    0.22E-03    0.24E-04    0.22E-06
 PAW_GGA W 21Dec2000                    :
 energy of atom  1       EATOM= -205.1475
 kinetic energy error for atom=    0.0017 (will be added to EATOM!!)
 PAW_GGA H 07Jul1998                    :
 energy of atom  2       EATOM=  -12.5313
 kinetic energy error for atom=    0.0020 (will be added to EATOM!!)
 
 
 POSCAR: POSCAR file written by OVITO Basic 3.3.5
  positions in cartesian coordinates
  No initial velocities read in
 exchange correlation table for  LEXCH =        7
   RHO(1)=    0.500       N(1)  =     2000
   RHO(2)=  100.500       N(2)  =     4000
 


--------------------------------------------------------------------------------------------------------


 ion  position               nearest neighbor table
   1  0.102  0.099  0.100- 224 1.84  53 2.68  52 2.69 165 2.70  13 2.72  64 2.74   3 2.75  14 2.84
                             2 2.84  54 3.13  67 3.13   4 3.13 166 3.14  15 3.20  20 3.25
   2  0.206  0.203  0.202- 224 1.83  85 2.63  25 2.70   4 2.72  72 2.73  83 2.79  67 2.81  20 2.83
                             1 2.84   5 3.12  21 3.12  68 3.15   3 3.20  52 3.21  14 3.33
   3  0.201  0.201  0.000-  25 2.71 171 2.72 180 2.72   4 2.73 166 2.73 185 2.75   1 2.75  20 2.76
                           169 3.12  22 3.14 167 3.15  53 3.17  13 3.18   2 3.20
   4  0.301  0.102  0.100- 169 2.71   2 2.72   3 2.73 170 2.74  53 2.74  52 2.76   6 2.76   5 2.77
                            25 3.13   1 3.13  72 3.14 171 3.15   7 3.17  59 3.20
   5  0.403  0.203  0.199- 226 1.88 245 1.90   7 2.69  75 2.72  27 2.74  25 2.74  72 2.75   4 2.77
                            85 2.78   2 3.12   9 3.13  26 3.13 169 3.18   6 3.23  73 3.26
   6  0.398  0.999  0.201- 225 1.85  72 2.65 107 2.70  75 2.72 108 2.74  59 2.74   4 2.76  61 2.78
                             7 2.88  52 3.14  74 3.15  60 3.16  10 3.19   5 3.23 170 3.24
   7  0.501  0.108  0.097- 225 1.84  10 2.68 169 2.69  12 2.69   9 2.69   5 2.69  11 2.73 170 2.85
                             6 2.88  27 3.04 174 3.12  75 3.16   4 3.17   8 3.17  61 3.37
   8  0.702  0.104  0.099-  10 2.65   9 2.71  19 2.71  16 2.71  18 2.74  12 2.74  17 2.76  11 2.79
                            28 3.09  15 3.13 175 3.16  76 3.16   7 3.17  63 3.21
   9  0.601  0.203  0.197- 260 1.82 235 1.95   7 2.69   8 2.71  28 2.71  76 2.74  27 2.74  75 2.77
                            86 2.80  10 3.09   5 3.13  16 3.15  12 3.16  29 3.17  77 3.23
  10  0.600  0.008  0.191- 239 1.85 231 1.92   8 2.65   7 2.68  75 2.72  63 2.77  61 2.82  76 2.84
                           108 2.93 111 3.00  11 3.02   9 3.09  18 3.17   6 3.19  78 3.37
  11  0.598  0.002  0.000- 382 1.84 216 2.69   7 2.73 174 2.74   8 2.79  61 2.80  63 2.80 175 2.83
                           217 2.86  10 3.02 177 3.08  12 3.16 170 3.18 215 3.22  17 3.27
  12  0.601  0.202  0.997- 175 2.68   7 2.69  27 2.70 190 2.70 188 2.71  28 2.72 174 2.73   8 2.74
                           189 3.09 176 3.13   9 3.16  11 3.16  19 3.17 169 3.21
  13  1.000  0.197  0.003- 386 1.83  15 2.69   1 2.72 178 2.73 166 2.73  31 2.77  20 2.78 180 2.84
                           194 2.86 165 3.07  19 3.13  14 3.13   3 3.18 168 3.19  24 3.28
  14  0.996  0.201  0.202- 224 1.84  80 2.69  15 2.70  88 2.71  31 2.72  67 2.73  83 2.78  20 2.83
                             1 2.84  16 3.08  13 3.13  71 3.14  64 3.16  23 3.16   2 3.33
  15  0.900  0.101  0.102-  17 2.69  13 2.69  18 2.69  14 2.70  64 2.72  16 2.72  19 2.75 165 2.75
                             8 3.13  80 3.15  31 3.17  66 3.17 178 3.18   1 3.20
  16  0.801  0.203  0.199-  76 2.68  31 2.68   8 2.71  15 2.72  28 2.73  86 2.74  88 2.75  80 2.76
                            14 3.08  32 3.11  19 3.15   9 3.15  18 3.16  81 3.18
  17  0.804  0.002  0.002- 382 1.84  15 2.69 178 2.70  66 2.72  63 2.72   8 2.76 222 2.77 175 2.82
                           217 2.88  18 3.13 165 3.13  19 3.15 220 3.18 219 3.23  11 3.27
  18  0.800  0.003  0.199-  15 2.69  66 2.71  63 2.72   8 2.74 116 2.74  80 2.74  76 2.75 111 2.79
                           114 3.11  17 3.13  64 3.16  16 3.16  10 3.17  65 3.26
  19  0.802  0.201  1.000- 194 2.70 175 2.70  28 2.70   8 2.71  31 2.72 178 2.73 190 2.74  15 2.75
                            13 3.13  33 3.14  16 3.15  17 3.15  12 3.17 179 3.18
  20  0.100  0.304  0.099- 224 1.82  22 2.68  23 2.72  24 2.72  21 2.75   3 2.76  13 2.78  14 2.83
                             2 2.83  34 3.10 180 3.17  25 3.17  83 3.19  31 3.19   1 3.25
  21  0.202  0.401  0.202- 240 1.80 243 1.86  85 2.67  83 2.74  20 2.75  39 2.75  34 2.76  25 2.76
                            92 2.76   2 3.12  36 3.14  26 3.16  22 3.18  84 3.20  23 3.21
  22  0.199  0.400  0.001-  39 2.65  20 2.68 182 2.71 180 2.71 187 2.72  25 2.73 185 2.74  34 2.74
                            37 3.13 184 3.14   3 3.14  24 3.17  21 3.18 181 3.20
  23  0.999  0.401  0.199-  92 2.70  34 2.71  20 2.72  90 2.72  47 2.72  31 2.73  83 2.74  88 2.75
                            24 3.10  87 3.14  32 3.15  14 3.16  38 3.17  21 3.21
  24  0.999  0.404  0.003- 386 1.84  47 2.66 196 2.67  34 2.70  20 2.72 182 2.73  31 2.75 180 2.84
                           194 2.85  51 3.08  23 3.10  33 3.12  22 3.17 183 3.19  13 3.28
  25  0.301  0.300  0.098- 184 2.67   2 2.70   3 2.71 169 2.72  22 2.73  26 2.74   5 2.74  21 2.76
                           185 3.12   4 3.13  39 3.14  27 3.17  20 3.17  85 3.18
  26  0.402  0.401  0.196- 276 1.68 243 1.82 246 1.85 227 1.92 226 2.00 272 2.16  40 2.71  25 2.74
                            27 2.76  39 2.78  85 2.80  42 3.07  29 3.09 184 3.11   5 3.13  21 3.16
  27  0.501  0.300  0.093- 226 1.85 189 2.67 184 2.69  12 2.70 169 2.73   5 2.74   9 2.74  26 2.76
                            29 2.79   7 3.04 188 3.04  40 3.10  28 3.16  25 3.17
  28  0.701  0.300  0.097- 189 2.69  19 2.70   9 2.71  12 2.72  33 2.72  16 2.73  32 2.77  29 2.82
                             8 3.09 190 3.11  31 3.13  30 3.16  27 3.16  86 3.32
  29  0.598  0.403  0.199- 356 1.81 264 1.82 260 1.83 246 1.91 266 1.96 228 2.08  40 2.72  27 2.79
                            30 2.79  28 2.82  86 2.92  45 3.05  26 3.09 189 3.16   9 3.17  32 3.20
  30  0.700  0.500  0.092- 228 1.88  50 2.65  33 2.68 189 2.69  46 2.69  29 2.79  45 2.81  32 2.82
                            49 2.82 193 2.97  44 3.13  47 3.15  28 3.16  40 3.17
  31  0.899  0.301  0.101-  16 2.68  32 2.71  33 2.71  14 2.72  19 2.72  23 2.73  24 2.75  13 2.77
                            28 3.13  47 3.14  88 3.17  15 3.17  20 3.19 194 3.22
  32  0.801  0.400  0.201- 264 1.87 302 1.98  31 2.71  88 2.72  47 2.75  28 2.77  90 2.78  86 2.79
                            30 2.82  16 3.11  23 3.15  89 3.15  49 3.15  33 3.18  29 3.20
  33  0.801  0.400  0.999-  30 2.68 194 2.71 193 2.71  31 2.71 196 2.72  28 2.72 190 2.72  47 2.72
                            24 3.12  19 3.14 189 3.16  50 3.17  32 3.18 195 3.19
  34  0.100  0.500  0.102-  36 2.70  24 2.70  23 2.71  38 2.71  37 2.71  51 2.73  22 2.74  21 2.76
                            20 3.10  92 3.12  39 3.13  35 3.14  47 3.17 182 3.18
  35  0.100  0.698  0.100-  38 2.68  56 2.69  57 2.70  36 2.71  58 2.72  51 2.72  37 2.73  55 2.74
                            41 3.11 197 3.12  93 3.12  34 3.14  48 3.16  54 3.19
  36  0.199  0.599  0.199- 229 1.92 273 1.92  34 2.70  35 2.71  93 2.73  41 2.74  92 2.75  96 2.77
                            39 2.78  37 3.14  21 3.14  38 3.14  55 3.16  94 3.18  42 3.21
  37  0.199  0.598  0.001-  39 2.66 182 2.70  41 2.71  34 2.71  35 2.73 197 2.73 187 2.73 200 2.76
                            22 3.13  36 3.14 199 3.14  51 3.15  58 3.19 198 3.19
  38  0.000  0.601  0.197-  35 2.68  48 2.69  99 2.70  34 2.71  93 2.71  92 2.73  47 2.74  90 2.75
                            51 3.10  36 3.14  49 3.16  98 3.16  57 3.17  23 3.17
  39  0.297  0.499  0.094- 229 1.87  22 2.65  37 2.66 199 2.69 184 2.71  21 2.75  26 2.78  36 2.78
                            42 2.78 187 3.02  34 3.13  25 3.14  41 3.18  40 3.20
  40  0.500  0.496  0.092- 227 1.81 189 2.68 184 2.69  26 2.71  46 2.72 199 2.72  29 2.72  45 2.76
                            42 2.77 192 2.90  27 3.10  30 3.17  43 3.20  39 3.20
  41  0.297  0.700  0.097-  58 2.69  37 2.71 199 2.72  55 2.72 212 2.73  36 2.74  60 2.77  42 2.83
                           200 3.06  35 3.11  59 3.16  39 3.18  96 3.19  43 3.19
  42  0.402  0.595  0.198- 227 1.84 283 1.88 272 1.92 287 1.94 282 2.03  40 2.77  39 2.78  43 2.78
                            96 2.81  41 2.83  45 3.06  26 3.07 199 3.12  36 3.21  60 3.22
  43  0.499  0.698  0.093- 230 1.98 199 2.67  46 2.68 212 2.69 215 2.71  62 2.77  42 2.78  45 2.79
                            60 2.80 202 2.99  61 3.11  41 3.19  40 3.20  44 3.20
  44  0.701  0.697  0.098-  50 2.66  62 2.70  65 2.71 219 2.71  46 2.72 215 2.74  49 2.75  45 2.82
                            30 3.13 204 3.13  48 3.15  43 3.20  63 3.22  97 3.27
  45  0.595  0.596  0.199- 228 1.84 287 1.90 230 1.90 292 1.91 294 2.12 266 2.17  40 2.76  43 2.79
                            30 2.81  44 2.82  97 2.87  62 3.00  29 3.05  42 3.06  46 3.17  49 3.25
  46  0.600  0.600  0.998- 192 2.67  43 2.68 193 2.69 202 2.69  30 2.69 204 2.70  44 2.72  40 2.72
                           203 3.12 215 3.13  50 3.17  45 3.17 199 3.20 189 3.21
  47  0.900  0.500  0.099-  24 2.66  50 2.70  51 2.71  23 2.72  33 2.72  38 2.74  49 2.74  32 2.75
                            31 3.14  48 3.14  30 3.15 196 3.17  34 3.17  90 3.19
  48  0.900  0.699  0.100-  50 2.69  38 2.69 219 2.71  51 2.72  56 2.72  49 2.74  65 2.75  57 2.78
                            47 3.14  44 3.15 207 3.16  35 3.16  66 3.18  99 3.19
  49  0.800  0.599  0.201- 294 1.86 302 1.99  99 2.69  97 2.69  47 2.74  48 2.74  44 2.75  90 2.76
                            30 2.82  65 3.12  50 3.13  32 3.15  38 3.16 100 3.19  45 3.25
  50  0.801  0.600  0.003- 389 1.82  30 2.65  44 2.66  48 2.69  47 2.70 193 2.73 204 2.78 207 2.80
                           196 2.82 219 3.12  49 3.13  51 3.15  33 3.17  46 3.17 206 3.28
  51  1.000  0.599  0.002- 197 2.70  47 2.71  48 2.72  35 2.72  34 2.73 196 2.76 182 2.76 207 2.77
                            24 3.08  38 3.10  56 3.12 205 3.14  37 3.15  50 3.15
  52  0.200  1.000  0.199-   1 2.69  54 2.71  59 2.72 103 2.74 107 2.74  67 2.76   4 2.76  72 2.77
                            53 3.12   6 3.14  64 3.16 102 3.17  55 3.18   2 3.21
  53  0.199  0.001  0.002-   1 2.68 214 2.70  54 2.71 166 2.73  59 2.73   4 2.74 171 2.76 209 2.76
                           170 3.11 165 3.12  52 3.12 208 3.13   3 3.17  58 3.18
  54  0.101  0.900  0.100-  57 2.67  58 2.70  52 2.71  53 2.71  55 2.74 165 2.75  64 2.77  56 2.77
                            59 3.11   1 3.13 103 3.14 209 3.15  35 3.19  66 3.21
  55  0.200  0.799  0.200-  96 2.72  41 2.72  59 2.72  93 2.73  54 2.74 103 2.74  35 2.74 107 2.74
                            57 3.09  58 3.14  60 3.14  36 3.16 104 3.17  52 3.18
  56  0.002  0.796  0.001- 391 1.83 197 2.67 207 2.69  35 2.69  48 2.72 209 2.74  54 2.77  66 2.83
                           222 2.83  57 3.10  58 3.10  51 3.12 211 3.17 219 3.18 165 3.27
  57  0.004  0.802  0.197- 233 1.85  54 2.67 103 2.70  35 2.70  66 2.72  93 2.72  48 2.78 116 2.83
                            99 2.88  55 3.09  56 3.10 113 3.12  64 3.16  38 3.17  65 3.29
  58  0.198  0.800  0.001- 214 2.69  41 2.69  54 2.70  35 2.72  59 2.73 209 2.73 197 2.74 200 2.77
                            56 3.10  55 3.14 212 3.17  53 3.18  37 3.19 210 3.21
  59  0.298  0.899  0.100-  52 2.72  55 2.72  58 2.73 212 2.73  60 2.73  53 2.73   6 2.74 170 2.77
                            54 3.11 214 3.12  61 3.14 107 3.14  41 3.16   4 3.20
  60  0.399  0.799  0.199- 306 1.93 282 1.96  61 2.67  96 2.70  59 2.73 108 2.73 107 2.74  41 2.77
                            43 2.80 212 3.14  55 3.14   6 3.16  62 3.21  42 3.22 106 3.24
  61  0.497  0.895  0.099- 225 1.83 232 1.85 212 2.67  60 2.67 215 2.76   6 2.78  11 2.80  10 2.82
                           170 2.82  62 2.92  43 3.11 216 3.12  59 3.14 108 3.17  63 3.29   7 3.37
  62  0.601  0.785  0.205- 232 1.82 230 1.82 231 1.86 293 1.88  97 2.69  44 2.70  43 2.77 108 2.84
                           111 2.84  61 2.92  63 2.97  45 3.00  65 3.09 110 3.16  60 3.21 215 3.27
  63  0.704  0.901  0.099- 232 1.83  65 2.71  18 2.72  17 2.72 219 2.73  10 2.77  11 2.80 215 2.80
                            62 2.97  66 3.07 217 3.19 111 3.20   8 3.21  44 3.22  61 3.29
  64  1.000  0.001  0.200-  67 2.68 116 2.69  15 2.72  66 2.74   1 2.74  80 2.74 103 2.75  54 2.77
                            70 3.15 165 3.15  14 3.16  18 3.16  57 3.16  52 3.16
  65  0.796  0.797  0.199- 233 1.83 111 2.67  63 2.71  44 2.71  97 2.74  66 2.74  48 2.75  99 2.82
                           116 2.87  62 3.09  49 3.12 219 3.15 115 3.21  18 3.26  57 3.29
  66  0.898  0.900  0.104- 391 1.83  18 2.71  57 2.72  17 2.72  64 2.74  65 2.74 219 2.77 165 2.83
                            56 2.83  63 3.07 116 3.11  15 3.17  48 3.18  54 3.21 222 3.28
  67  0.097  0.100  0.298- 234 1.86  64 2.68  70 2.72  14 2.73  71 2.74  52 2.76 102 2.81   2 2.81
                            68 2.87  80 3.12  69 3.12   1 3.13 103 3.18  83 3.20  72 3.29
  68  0.201  0.207  0.402- 234 1.85 242 1.96 236 1.98  85 2.69 132 2.72  83 2.72  69 2.73 121 2.82
                            67 2.87  72 2.88 119 3.12  84 3.13   2 3.15  71 3.17  73 3.21 102 3.34
  69  0.103  0.100  0.495- 308 1.83 102 2.71  70 2.72  68 2.73  71 2.74 120 2.76 119 2.79 129 2.85
                           162 2.89  67 3.12 121 3.12  82 3.14 105 3.14 132 3.19 118 3.27
  70  0.000  0.001  0.400- 116 2.68  82 2.72  67 2.72  69 2.72  80 2.74 103 2.76 117 2.76 105 2.77
                           114 3.14  64 3.15 102 3.15 113 3.17  71 3.18 162 3.19
  71  0.000  0.202  0.400-  82 2.70 132 2.70  91 2.71  80 2.73  88 2.73  83 2.73  69 2.74  67 2.74
                            87 3.13  81 3.13  14 3.14 129 3.17  68 3.17  70 3.18
  72  0.305  0.099  0.298- 234 1.82  74 2.65   6 2.65   2 2.73   5 2.75  52 2.77 102 2.83  73 2.84
                            68 2.88  75 3.09   4 3.14 107 3.15  85 3.20 121 3.21  67 3.29
  73  0.404  0.205  0.405- 241 1.81 248 1.89 245 1.90 259 1.90 236 1.94 237 2.07 125 2.78 121 2.80
                            85 2.82  75 2.83  72 2.84  77 3.04 123 3.05  68 3.21  74 3.22   5 3.26
  74  0.394  0.001  0.400- 238 1.88  72 2.65 121 2.65 109 2.67 107 2.71 125 2.72 157 2.74 108 2.82
                            75 2.82 102 3.08 106 3.15   6 3.15 153 3.18  73 3.22  78 3.36
  75  0.500  0.100  0.296- 238 1.81 235 1.86  10 2.72   5 2.72   6 2.72  77 2.74   9 2.77  74 2.82
                            73 2.83  78 2.86  72 3.09   7 3.16 108 3.20  76 3.20 125 3.24
  76  0.703  0.107  0.299- 239 1.85  81 2.68  16 2.68   9 2.74  18 2.75  77 2.75 114 2.78  78 2.81
                            10 2.84  86 3.00  79 3.10  80 3.12   8 3.16  75 3.20 111 3.35
  77  0.596  0.200  0.401- 261 1.82 259 1.87 335 1.92 237 1.97 235 2.16  79 2.65  86 2.73  75 2.74
                            76 2.75 125 2.79  73 3.04 127 3.07  78 3.16   9 3.23  81 3.26
  78  0.607  0.000  0.404- 238 1.82 239 1.86  79 2.63 112 2.65 125 2.73 111 2.79 157 2.80  76 2.81
                            75 2.86 108 2.87 128 3.05 114 3.09  77 3.16 110 3.22  74 3.36  10 3.37
  79  0.697  0.106  0.495- 310 1.80 312 1.84 311 1.85  78 2.63  77 2.65 127 2.67  81 2.70 128 2.79
                           131 2.79 114 2.83 160 2.97  76 3.10 125 3.14 112 3.23  82 3.28 126 3.32
  80  0.900  0.102  0.301-  14 2.69  81 2.70 114 2.71  71 2.73  70 2.74  18 2.74  64 2.74  16 2.76
                           116 3.11  67 3.12  76 3.12  15 3.15  82 3.15  88 3.16
  81  0.802  0.201  0.400- 265 1.89 310 1.96  86 2.63  76 2.68  79 2.70  80 2.70  88 2.72  82 2.75
                            91 2.78  71 3.13  89 3.18  16 3.18 114 3.19 131 3.19  77 3.26
  82  0.905  0.102  0.500- 312 1.85  71 2.70 129 2.70  70 2.72 162 2.75  81 2.75 131 2.79 114 2.83
                           160 2.85  69 3.14  80 3.15 117 3.17  91 3.17 130 3.17  79 3.28
  83  0.099  0.303  0.301-  87 2.66  68 2.72  71 2.73  23 2.74  21 2.74  14 2.78   2 2.79  84 2.79
                            92 3.12 132 3.14  88 3.15  85 3.15  20 3.19  67 3.20
  84  0.200  0.405  0.404- 244 1.74 270 1.87 278 1.89 242 2.03 240 2.13 142 2.70 132 2.76  92 2.77
                            83 2.79  85 2.79 134 3.03  94 3.04  68 3.13  87 3.15  21 3.20
  85  0.298  0.302  0.300- 242 1.78 243 1.80 245 1.86 244 2.12   2 2.63  21 2.67  68 2.69   5 2.78
                            84 2.79  26 2.80  73 2.82  83 3.15  25 3.18  72 3.20
  86  0.704  0.297  0.306- 264 1.84 261 1.90 265 1.90 263 1.91 260 2.05  81 2.63  89 2.72  77 2.73
                            16 2.74  32 2.79   9 2.80  29 2.92  76 3.00  88 3.11  28 3.32
  87  0.000  0.399  0.397-  83 2.66  90 2.68  88 2.68 132 2.69  92 2.69  91 2.70 148 2.71 142 2.74
                            89 3.12  71 3.13  23 3.14  84 3.15  98 3.16 138 3.24
  88  0.900  0.302  0.301-  87 2.68  89 2.69  14 2.71  81 2.72  32 2.72  71 2.73  16 2.75  23 2.75
                            86 3.11  91 3.14  90 3.15  83 3.15  80 3.16  31 3.17
  89  0.803  0.401  0.400- 330 1.74 265 1.88 263 1.93 289 2.14  88 2.69  90 2.72  86 2.72  91 2.74
                           148 2.77 100 3.07 140 3.10  87 3.12  32 3.15  81 3.18
  90  0.904  0.501  0.301- 302 1.85  98 2.66  87 2.68  23 2.72  89 2.72 100 2.75  38 2.75  49 2.76
                            32 2.78  92 3.04  99 3.05  88 3.15 148 3.17  47 3.19
  91  0.905  0.302  0.500- 339 1.91 129 2.68 138 2.69  87 2.70  71 2.71 140 2.72  89 2.74  81 2.78
                           131 2.79 132 3.03 148 3.09 139 3.14  88 3.14  82 3.17
  92  0.096  0.500  0.299- 240 1.78  98 2.68  87 2.69  23 2.70  38 2.73  36 2.75  94 2.75  21 2.76
                            84 2.77  90 3.04  83 3.12  34 3.12  93 3.15 142 3.18
  93  0.099  0.699  0.298- 113 2.69  38 2.71  57 2.72  98 2.73  55 2.73  36 2.73  94 2.78 104 2.79
                            95 3.11  35 3.12  99 3.14  92 3.15 103 3.16  96 3.19
  94  0.199  0.597  0.400- 278 1.86 280 1.91 273 1.93 285 1.99 271 2.03 142 2.72  95 2.73  92 2.75
                            93 2.78  96 2.80  84 3.04  98 3.14 144 3.18  36 3.18 104 3.21
  95  0.095  0.698  0.494- 375 1.82 271 1.83  98 2.65 113 2.70  94 2.73 145 2.76 104 2.77 161 2.82
                           144 2.84 152 2.91 101 3.04  93 3.11 142 3.11 105 3.23 143 3.34
  96  0.301  0.701  0.299- 282 1.91 281 2.02 280 2.03 283 2.04 273 2.13  60 2.70  55 2.72 104 2.74
                            36 2.77 106 2.80  94 2.80  42 2.81 107 3.15  41 3.19  93 3.19
  97  0.705  0.694  0.305- 294 1.85 296 1.89 295 1.99 293 2.00 100 2.67  62 2.69  49 2.69  65 2.74
                           115 2.74 110 2.82  45 2.87  99 3.10 111 3.17  44 3.27
  98  0.001  0.599  0.397-  95 2.65  99 2.66  90 2.66  92 2.68 142 2.70  93 2.73 148 2.73 101 2.74
                            94 3.14  87 3.16  38 3.16 100 3.17 113 3.18 145 3.24
  99  0.901  0.694  0.301- 233 1.84  98 2.66  49 2.69  38 2.70 100 2.75 113 2.75 115 2.76  65 2.82
                            57 2.88  90 3.05  97 3.10  93 3.14 101 3.15  48 3.19 116 3.34
 100  0.800  0.595  0.403- 289 1.74 296 1.76 365 1.90 303 1.96 304 2.01  97 2.67  90 2.75  99 2.75
                           101 2.76 148 2.78 149 3.03  89 3.07  98 3.17  49 3.19 115 3.21
 101  0.903  0.698  0.501- 303 1.83 145 2.71 115 2.72 164 2.73  98 2.74 149 2.75 161 2.75 100 2.76
                           113 2.81  95 3.04  99 3.15 150 3.16 148 3.16 117 3.23
 102  0.200  0.996  0.400- 234 1.85 105 2.65 109 2.70  69 2.71 107 2.71 103 2.71 121 2.76  67 2.81
                            72 2.83  74 3.08 104 3.09  70 3.15  52 3.17 120 3.19  68 3.34
 103  0.100  0.899  0.299- 113 2.68  57 2.70 102 2.71  52 2.74  55 2.74 104 2.75  64 2.75  70 2.76
                            54 3.14 116 3.15 107 3.15  93 3.16  67 3.18 105 3.18
 104  0.201  0.800  0.400- 271 1.83 281 1.96 105 2.72 107 2.73  96 2.74 103 2.75 109 2.76  95 2.77
                            93 2.79 102 3.09 113 3.15 106 3.17  55 3.17 152 3.17  94 3.21
 105  0.105  0.902  0.500- 305 1.85 102 2.65 120 2.70 152 2.71 104 2.72 162 2.76  70 2.77 113 2.83
                           161 2.86 109 3.10  69 3.14 151 3.17 103 3.18  95 3.23 117 3.29
 106  0.401  0.802  0.404- 279 1.78 281 1.86 288 1.92 291 2.04 157 2.70 108 2.71 109 2.73 107 2.78
                            96 2.80 154 3.10 110 3.11  74 3.15 104 3.17  60 3.24
 107  0.300  0.900  0.299-   6 2.70  74 2.71 102 2.71 104 2.73  52 2.74  55 2.74  60 2.74 106 2.78
                            59 3.14  96 3.15 108 3.15 103 3.15  72 3.15 109 3.19
 108  0.499  0.897  0.300- 238 1.83 306 1.86 231 1.87 106 2.71  60 2.73   6 2.74 110 2.78  74 2.82
                            62 2.84  78 2.87  10 2.93 107 3.15  61 3.17  75 3.20 157 3.21 111 3.27
 109  0.300  0.903  0.501- 378 1.94  74 2.67 153 2.69 102 2.70 154 2.71 152 2.73 106 2.73 120 2.73
                           104 2.76 121 3.08 157 3.08 105 3.10 155 3.14 107 3.19
 110  0.598  0.797  0.405- 307 1.80 301 1.90 291 1.93 295 1.96 293 2.13 112 2.77 108 2.78 157 2.82
                            97 2.82 111 2.82 159 3.11 106 3.11  62 3.16  78 3.22 115 3.25
 111  0.705  0.895  0.302- 239 1.89 231 1.91  65 2.67 114 2.69 115 2.70  18 2.79  78 2.79 110 2.82
                            62 2.84  10 3.00 116 3.10 112 3.13  97 3.17  63 3.20 108 3.27  76 3.35
 112  0.701  0.901  0.500- 380 1.83 307 1.98  78 2.65 128 2.69 114 2.75 115 2.76 110 2.77 160 2.78
                           164 2.82 159 2.96 117 3.09 111 3.13 158 3.23  79 3.23 157 3.26
 113  0.002  0.800  0.395- 305 1.83 103 2.68  93 2.69  95 2.70 116 2.73  99 2.75 101 2.81 105 2.83
                           117 2.84  57 3.12 115 3.13 104 3.15  70 3.17  98 3.18 161 3.32
 114  0.802  0.999  0.396- 312 1.87 116 2.64 111 2.69 117 2.70  80 2.71 112 2.75  76 2.78  82 2.83
                            79 2.83  78 3.09  18 3.11  70 3.14 115 3.17  81 3.19 160 3.32
 115  0.804  0.799  0.402- 303 1.90 307 1.90 117 2.68 111 2.70 101 2.72  97 2.74 112 2.76  99 2.76
                           116 2.79 113 3.13 164 3.15 114 3.17  65 3.21 100 3.21 110 3.25
 116  0.901  0.905  0.301- 233 1.86 114 2.64  70 2.68  64 2.69 113 2.73  18 2.74 115 2.79  57 2.83
                            65 2.87 111 3.10  80 3.11  66 3.11 117 3.14 103 3.15  99 3.34
 117  0.897  0.902  0.499- 305 1.83 115 2.68 114 2.70 160 2.70 162 2.71 164 2.72  70 2.76 161 2.82
                           113 2.84 112 3.09 116 3.14  82 3.17 163 3.22 101 3.23 105 3.29
 118  0.099  0.101  0.702- 308 1.83 381 1.84 168 2.70 221 2.73 120 2.76 129 2.78 208 2.79 162 2.81
                           119 2.81 167 2.82 133 3.15 166 3.15 151 3.15 130 3.15 122 3.25  69 3.27
 119  0.201  0.204  0.599- 318 1.86 313 1.87 133 2.72 136 2.73 132 2.76 122 2.78 121 2.79  69 2.79
                           118 2.81  68 3.12 134 3.19 129 3.19 167 3.20 123 3.20 120 3.22
 120  0.200  0.001  0.601- 105 2.70 121 2.72 151 2.72 155 2.73 109 2.73 122 2.75 118 2.76  69 2.76
                           152 3.13 153 3.14 102 3.19 162 3.20 208 3.20 119 3.22
 121  0.300  0.097  0.501- 236 1.86  74 2.65 153 2.70 120 2.72 123 2.74 102 2.76 119 2.79  73 2.80
                            68 2.82 109 3.08 122 3.10  69 3.12 125 3.14  72 3.21
 122  0.304  0.102  0.697- 381 1.83 153 2.66 123 2.68 173 2.69 172 2.74 120 2.75 119 2.78 167 2.85
                           208 2.89 124 3.07 121 3.10 155 3.17 136 3.17 171 3.21 118 3.25
 123  0.403  0.198  0.598- 317 1.79 327 1.90 248 1.92 318 1.94 124 2.66 122 2.68 125 2.72 121 2.74
                           136 2.83  73 3.05 127 3.09 153 3.14 172 3.17 119 3.20
 124  0.499  0.103  0.698- 379 1.84 309 1.94 123 2.66 127 2.73 173 2.74 176 2.74 172 2.74 153 2.75
                           128 2.81 177 2.85 122 3.07 125 3.12 174 3.18 126 3.19 156 3.22
 125  0.499  0.093  0.501- 237 1.82 128 2.65 153 2.69  74 2.72 123 2.72  78 2.73 127 2.73  73 2.78
                            77 2.79 157 2.99 124 3.12 121 3.14  79 3.14  75 3.24
 126  0.700  0.104  0.705- 311 1.83 179 2.65 176 2.67 131 2.75 220 2.75 177 2.76 127 2.81 160 2.83
                           128 2.87 175 3.07 137 3.12 130 3.15 124 3.19 158 3.27  79 3.32
 127  0.598  0.199  0.595- 335 1.79 331 1.88 327 1.89  79 2.67 124 2.73 125 2.73 137 2.79 126 2.81
                            77 3.07 123 3.09 128 3.18 131 3.20 176 3.22
 128  0.600  0.999  0.596- 379 1.82 311 1.85 125 2.65 157 2.68 112 2.69  79 2.79 158 2.80 156 2.81
                           124 2.81 126 2.87  78 3.05 127 3.18 153 3.20 160 3.21 159 3.22 177 3.30
 129  0.999  0.204  0.600- 308 1.83  91 2.68 139 2.69  82 2.70 132 2.71 133 2.71 130 2.77 118 2.78
                            69 2.85 138 3.09 131 3.14  71 3.17 168 3.18 119 3.19 162 3.29
 130  0.900  0.101  0.701- 160 2.69 168 2.72 179 2.73 220 2.73 131 2.74 221 2.75 162 2.76 129 2.77
                           118 3.15 126 3.15 178 3.16  82 3.17 139 3.18 163 3.19
 131  0.800  0.202  0.601- 339 1.91 310 1.97 139 2.71 137 2.74 130 2.74 126 2.75  82 2.79  79 2.79
                            91 2.79 179 3.12 129 3.14 140 3.15  81 3.19 127 3.20 160 3.24
 132  0.096  0.302  0.500- 313 1.91  87 2.69 138 2.70  71 2.70 129 2.71  68 2.72 119 2.76  84 2.76
                           134 2.79  91 3.03  83 3.14 142 3.15 133 3.17  69 3.19
 133  0.099  0.300  0.700- 138 2.70 129 2.71 167 2.71 119 2.72 183 2.73 181 2.74 168 2.77 134 2.85
                           118 3.15 139 3.15 180 3.15 135 3.16 132 3.17 136 3.17
 134  0.201  0.406  0.596- 320 1.78 270 1.85 323 1.86 313 1.90 142 2.70 135 2.78 132 2.79 136 2.81
                           133 2.85 144 2.99  84 3.03 138 3.18 119 3.19 181 3.21
 135  0.097  0.500  0.702- 314 2.06 198 2.67 144 2.69 145 2.71 205 2.71 138 2.72 183 2.72 181 2.73
                           134 2.78 141 3.09 143 3.11 182 3.14 133 3.16 142 3.19
 136  0.300  0.302  0.701- 318 1.91 316 2.02 317 2.10 320 2.16 167 2.67 172 2.69 181 2.71 119 2.73
                           134 2.81 186 2.82 123 2.83 185 3.15 122 3.17 133 3.17
 137  0.697  0.302  0.698- 337 1.90 333 1.91 332 1.92 334 1.98 331 2.01 176 2.72 131 2.74 195 2.75
                           179 2.76 191 2.78 140 2.78 127 2.79 126 3.12 190 3.19 139 3.21
 138  0.000  0.399  0.602- 148 2.66 139 2.68  91 2.69 132 2.70 133 2.70 141 2.70 135 2.72 142 2.75
                           129 3.09 183 3.14 140 3.16 145 3.17 134 3.18  87 3.24
 139  0.900  0.302  0.699- 138 2.68 129 2.69 131 2.71 195 2.72 183 2.72 179 2.74 140 2.75 168 2.79
                           141 3.13  91 3.14 194 3.15 133 3.15 130 3.18 137 3.21
 140  0.801  0.401  0.596- 334 1.77 333 1.88 339 1.91 330 1.96 361 2.01 148 2.72  91 2.72 139 2.75
                           141 2.75 137 2.78 149 3.10  89 3.10 131 3.15 138 3.16 195 3.19
 141  0.902  0.500  0.698- 374 1.85 145 2.68 138 2.70 195 2.74 140 2.75 183 2.76 205 2.76 206 2.76
                           149 2.79 135 3.09 148 3.11 139 3.13 150 3.13 196 3.18
 142  0.096  0.501  0.500- 144 2.70  84 2.70 134 2.70  98 2.70 145 2.72  94 2.72  87 2.74 138 2.75
                           148 2.98  95 3.11 132 3.15  92 3.18 135 3.19
 143  0.097  0.697  0.706- 375 1.83 205 2.66 211 2.68 145 2.73 198 2.73 210 2.75 161 2.77 144 2.79
                           152 2.88 197 3.11 135 3.11 150 3.13 146 3.23 151 3.24  95 3.34
 144  0.196  0.595  0.602- 346 1.89 345 1.95 323 2.00 285 2.03 135 2.69 142 2.70 146 2.78 143 2.79
                            95 2.84 134 2.99 145 3.12 198 3.12  94 3.18 152 3.28
 145  0.999  0.600  0.602- 148 2.68 141 2.68 101 2.71 150 2.71 135 2.71 142 2.72 143 2.73  95 2.76
                           144 3.12 161 3.16 205 3.17 138 3.17 149 3.20  98 3.24
 146  0.301  0.697  0.699- 348 1.76 347 1.80 345 1.85 349 1.88 213 2.67 201 2.70 154 2.74 152 2.77
                           144 2.78 198 2.79 210 2.80 143 3.23 200 3.23 155 3.23
 147  0.698  0.701  0.697- 372 1.89 373 1.96 369 1.99 371 2.00 370 2.01 206 2.72 223 2.73 218 2.73
                           164 2.75 159 2.78 149 2.79 203 2.87 158 3.11 150 3.19 204 3.20
 148  0.908  0.498  0.502- 304 1.90 138 2.66 145 2.68  87 2.71 140 2.72  98 2.73  89 2.77 149 2.77
                           100 2.78 142 2.98  91 3.09 141 3.11 101 3.16  90 3.17
 149  0.797  0.597  0.595- 361 1.83 371 1.84 365 1.88 372 1.94 304 1.95 101 2.75 148 2.77 141 2.79
                           147 2.79 150 2.81 100 3.03 140 3.10 206 3.17 164 3.19 145 3.20
 150  0.899  0.698  0.701- 164 2.68 161 2.71 145 2.71 223 2.71 206 2.72 205 2.75 211 2.78 149 2.81
                           143 3.13 141 3.13 207 3.15 101 3.16 163 3.17 147 3.19
 151  0.100  0.902  0.701- 210 2.70 162 2.70 208 2.72 221 2.72 120 2.72 211 2.73 161 2.74 152 2.74
                           118 3.15 163 3.16 209 3.16 105 3.17 155 3.18 143 3.24
 152  0.202  0.803  0.601- 375 1.85 345 1.87 378 1.91 155 2.71 105 2.71 109 2.73 151 2.74 146 2.77
                           143 2.88  95 2.91 154 3.10 210 3.11 120 3.13 104 3.17 161 3.22 144 3.28
 153  0.398  1.000  0.602- 122 2.66 157 2.66 155 2.68 125 2.69 109 2.69 156 2.70 121 2.70 124 2.75
                           154 3.13 120 3.14 123 3.14 173 3.15  74 3.18 128 3.20
 154  0.398  0.802  0.600- 353 1.67 288 1.77 348 1.82 378 1.92 156 2.70 155 2.70 109 2.71 157 2.71
                           146 2.74 159 2.97 152 3.10 106 3.10 153 3.13 213 3.13
 155  0.301  0.901  0.700- 153 2.68 154 2.70 152 2.71 210 2.72 213 2.73 120 2.73 208 2.76 173 2.76
                           156 3.07 109 3.14 122 3.17 151 3.18 214 3.21 146 3.23
 156  0.495  0.900  0.700- 377 1.82 379 1.83 159 2.68 153 2.70 154 2.70 213 2.74 173 2.76 218 2.79
                           128 2.81 177 2.85 155 3.07 157 3.12 216 3.20 158 3.21 124 3.22
 157  0.495  0.904  0.503- 376 1.74 153 2.66 128 2.68 106 2.70 159 2.71 154 2.71  74 2.74  78 2.80
                           110 2.82 125 2.99 109 3.08 156 3.12 108 3.21 112 3.26
 158  0.698  0.898  0.704- 380 1.98 223 2.71 218 2.73 177 2.75 220 2.76 160 2.76 128 2.80 164 2.82
                           159 2.90 217 3.06 147 3.11 163 3.20 156 3.21 112 3.23 126 3.27
 159  0.585  0.796  0.601- 380 1.81 376 1.85 301 1.88 353 1.93 369 2.01 156 2.68 157 2.71 147 2.78
                           158 2.90 112 2.96 154 2.97 110 3.11 218 3.16 128 3.22 164 3.48
 160  0.803  0.997  0.606- 311 1.83 312 1.85 163 2.66 130 2.69 117 2.70 158 2.76 112 2.78 126 2.83
                            82 2.85  79 2.97 220 3.07 162 3.08 164 3.14 128 3.21 131 3.24 114 3.32
 161  0.998  0.800  0.605- 305 1.85 375 1.85 163 2.69 150 2.71 151 2.74 101 2.75 143 2.77 117 2.82
                            95 2.82 105 2.86 164 3.05 211 3.10 162 3.10 145 3.16 152 3.22 113 3.32
 162  0.998  0.996  0.601- 308 1.83 163 2.70 151 2.70 117 2.71  82 2.75 105 2.76 130 2.76 118 2.81
                            69 2.89 160 3.08 161 3.10 221 3.15  70 3.19 120 3.20 129 3.29
 163  0.900  0.899  0.703- 160 2.66 161 2.69 162 2.70 164 2.71 211 2.72 220 2.72 221 2.73 223 2.73
                           222 3.06 151 3.16 150 3.17 130 3.19 158 3.20 117 3.22
 164  0.805  0.798  0.602- 372 1.88 380 1.88 150 2.68 163 2.71 117 2.72 101 2.73 147 2.75 112 2.82
                           158 2.82 161 3.05 223 3.12 160 3.14 115 3.15 149 3.19 159 3.48
 165  0.002  0.003  0.001- 391 1.83   1 2.70 166 2.70 178 2.74 209 2.74  54 2.75  15 2.75  66 2.83
                           222 2.86  13 3.07  53 3.12  17 3.13  64 3.15 221 3.16  56 3.27
 166  0.100  0.101  0.901- 165 2.70 168 2.72  53 2.73  13 2.73   3 2.73 208 2.74 221 2.76 167 2.82
                             1 3.14 171 3.15 118 3.15 180 3.16 178 3.16 209 3.18
 167  0.202  0.207  0.801- 381 1.84 180 2.65 136 2.67 185 2.67 133 2.71 171 2.76 118 2.82 166 2.82
                           122 2.85 181 3.06 172 3.12   3 3.15 119 3.20 168 3.21 208 3.32
 168  0.999  0.198  0.801- 118 2.70 178 2.70 130 2.72 166 2.72 194 2.75 133 2.77 180 2.78 139 2.79
                           221 3.13 179 3.15 183 3.17 129 3.18  13 3.19 167 3.21
 169  0.398  0.200  0.998- 171 2.68   7 2.69 185 2.71 174 2.71   4 2.71  25 2.72  27 2.73 188 2.75
                           184 3.12   3 3.12 170 3.15 172 3.15   5 3.18  12 3.21
 170  0.396  0.001  0.997- 225 1.83 171 2.69 214 2.71   4 2.74 174 2.75  59 2.77 216 2.77  61 2.82
                             7 2.85 173 3.10  53 3.11 169 3.15 212 3.17  11 3.18   6 3.24
 171  0.300  0.102  0.900- 169 2.68 170 2.69 173 2.70   3 2.72 208 2.75 167 2.76  53 2.76 172 2.78
                           166 3.15   4 3.15 174 3.16 185 3.16 214 3.20 122 3.21
 172  0.400  0.205  0.798- 319 1.73 309 1.91 136 2.69 185 2.72 122 2.74 124 2.74 188 2.75 174 2.77
                           171 2.78 167 3.12 173 3.15 169 3.15 176 3.16 123 3.17 186 3.17
 173  0.399  0.006  0.801- 390 1.84 122 2.69 171 2.70 174 2.70 124 2.74 155 2.76 156 2.76 214 2.86
                           216 2.86 170 3.10 153 3.15 172 3.15 208 3.15 177 3.20 213 3.32
 174  0.499  0.102  0.899- 173 2.70 169 2.71 177 2.72  12 2.73  11 2.74 176 2.75 170 2.75 172 2.77
                             7 3.12 171 3.16 188 3.16 124 3.18 175 3.20 216 3.22
 175  0.702  0.106  0.899- 382 1.85  12 2.68 179 2.69  19 2.70 176 2.73 177 2.73 220 2.78  17 2.82
                            11 2.83 126 3.07 190 3.09 178 3.14   8 3.16 174 3.20 217 3.34
 176  0.599  0.202  0.799- 337 1.84 309 2.09 126 2.67 137 2.72 175 2.73 124 2.74 188 2.75 174 2.75
                           190 2.76  12 3.13 172 3.16 191 3.16 179 3.17 177 3.18 127 3.22
 177  0.601  0.001  0.805- 379 1.81 216 2.71 174 2.72 217 2.73 175 2.73 158 2.75 126 2.76 124 2.85
                           156 2.85  11 3.08 220 3.16 176 3.18 173 3.20 218 3.24 128 3.30
 178  0.900  0.100  0.901-  17 2.70 168 2.70  19 2.73  13 2.73 220 2.73 221 2.73 165 2.74 179 2.78
                           175 3.14 130 3.16 166 3.16 194 3.17  15 3.18 222 3.20
 179  0.800  0.202  0.799- 126 2.65 194 2.68 175 2.69 130 2.73 190 2.73 139 2.74 137 2.76 178 2.78
                           131 3.12 195 3.14 168 3.15 176 3.17  19 3.18 220 3.20
 180  0.103  0.301  0.899- 386 1.84 167 2.65  22 2.71   3 2.72 181 2.72 183 2.74 168 2.78  24 2.84
                            13 2.84 185 3.13 182 3.14 133 3.15 166 3.16  20 3.17 194 3.27
 181  0.200  0.401  0.799- 314 1.86 383 1.96 136 2.71 180 2.72 135 2.73 182 2.73 133 2.74 185 2.76
                           187 2.77 198 3.03 167 3.06 183 3.18  22 3.20 134 3.21 186 3.21
 182  0.101  0.499  0.901- 198 2.69  37 2.70  22 2.71 181 2.73  24 2.73 205 2.74 183 2.76  51 2.76
                           180 3.14 135 3.14 197 3.15 196 3.15 187 3.16  34 3.18
 183  0.999  0.398  0.801- 196 2.68 194 2.72 135 2.72 139 2.72 133 2.73 180 2.74 141 2.76 182 2.76
                           138 3.14 195 3.15 168 3.17 181 3.18 205 3.18  24 3.19
 184  0.398  0.397  0.999- 185 2.65  25 2.67  40 2.69 192 2.69 187 2.69  27 2.69 188 2.70  39 2.71
                           186 3.10  26 3.11 169 3.12  22 3.14 199 3.20 189 3.23
 185  0.301  0.302  0.900- 184 2.65 167 2.67 169 2.71 172 2.72  22 2.74   3 2.75 181 2.76 186 2.76
                           187 3.12  25 3.12 180 3.13 188 3.15 136 3.15 171 3.16
 186  0.403  0.405  0.803- 316 1.77 319 1.84 321 1.88 336 1.92 383 1.94 192 2.69 187 2.70 188 2.73
                           185 2.76 136 2.82 201 3.09 184 3.10 191 3.12 172 3.17 181 3.21
 187  0.301  0.499  0.903- 383 1.93 199 2.69 184 2.69 186 2.70  22 2.72  37 2.73 198 2.74 201 2.76
                           181 2.77  39 3.02 185 3.12 192 3.12 200 3.16 182 3.16
 188  0.501  0.302  0.901- 189 2.68 184 2.70 191 2.71  12 2.71 186 2.73 172 2.75 176 2.75 169 2.75
                            27 3.04 192 3.13 185 3.15 174 3.16 190 3.17
 189  0.602  0.397  0.999-  27 2.67  40 2.68 188 2.68  30 2.69  28 2.69 190 2.69 193 2.70 192 2.71
                           191 3.07  12 3.09  33 3.16  29 3.16  46 3.21 184 3.23
 190  0.701  0.301  0.900- 189 2.69  12 2.70 191 2.71  33 2.72 179 2.73  19 2.74 195 2.74 176 2.76
                           194 3.08 175 3.09  28 3.11 193 3.15 188 3.17 137 3.19
 191  0.601  0.402  0.805- 385 1.86 332 1.99 336 2.06 384 2.12 337 2.12 366 2.18 188 2.71 193 2.71
                           190 2.71 192 2.77 137 2.78 203 3.04 189 3.07 186 3.12 195 3.15 176 3.16
 192  0.498  0.500  0.908- 384 1.90  46 2.67 199 2.68 184 2.69 186 2.69 203 2.71 189 2.71 191 2.77
                           201 2.80  40 2.90 187 3.12 188 3.13 202 3.15 193 3.19
 193  0.700  0.500  0.905- 385 1.92  46 2.69 189 2.70  33 2.71 191 2.71  50 2.73 206 2.77 203 2.78
                           195 2.80  30 2.97 204 3.14 190 3.15 192 3.19 196 3.20
 194  0.896  0.300  0.897- 386 1.83 179 2.68  19 2.70 195 2.70  33 2.71 183 2.72 168 2.75  24 2.85
                            13 2.86 190 3.08 196 3.10 139 3.15 178 3.17  31 3.22 180 3.27
 195  0.800  0.400  0.798- 385 1.98 374 2.09 334 2.15 194 2.70 139 2.72 196 2.74 141 2.74 190 2.74
                           137 2.75 193 2.80 206 3.14 179 3.14 183 3.15 191 3.15  33 3.19 140 3.19
 196  0.902  0.496  0.899- 389 1.84  24 2.67 183 2.68 205 2.71  33 2.72 195 2.74  51 2.76  50 2.82
                           206 2.85 194 3.10 182 3.15  47 3.17 141 3.18 193 3.20 207 3.26
 197  0.098  0.698  0.903- 387 1.86  56 2.67  51 2.70 205 2.71  37 2.73  58 2.74 211 2.75 198 2.83
                           210 2.84 207 3.10 143 3.11  35 3.12 182 3.15 209 3.18 200 3.24
 198  0.200  0.593  0.799- 387 1.83 347 1.85 135 2.67 182 2.69 143 2.73 187 2.74 146 2.79 197 2.83
                           200 2.86 181 3.03 144 3.12 205 3.16 201 3.17  37 3.19 210 3.32
 199  0.397  0.600  0.000- 200 2.65  43 2.67 192 2.68 187 2.69  39 2.69  41 2.72  40 2.72 202 2.73
                            42 3.12  37 3.14 201 3.15 212 3.17 184 3.20  46 3.20
 200  0.303  0.699  0.904- 387 1.83 199 2.65 212 2.68 213 2.71 201 2.72  37 2.76  58 2.77 210 2.86
                           198 2.86  41 3.06 202 3.11 187 3.16 214 3.18 146 3.23 197 3.24
 201  0.400  0.601  0.801- 349 1.74 388 1.86 321 1.92 347 1.99 146 2.70 200 2.72 202 2.74 187 2.76
                           192 2.80 203 3.07 213 3.09 186 3.09 199 3.15 198 3.17
 202  0.499  0.699  0.903- 388 1.97  46 2.69 215 2.70 218 2.71 199 2.73 212 2.73 201 2.74 203 2.75
                           213 2.79  43 2.99 200 3.11 204 3.15 192 3.15 216 3.16
 203  0.594  0.594  0.801- 373 1.86 364 1.86 366 1.87 384 1.89 370 1.90 192 2.71 202 2.75 193 2.78
                           204 2.81 147 2.87 191 3.04 201 3.07  46 3.12 218 3.19 206 3.19
 204  0.698  0.699  0.900- 215 2.69  46 2.70 218 2.72 223 2.74 206 2.75 219 2.75  50 2.78 203 2.81
                           217 3.09  44 3.13 193 3.14 202 3.15 147 3.20 207 3.22
 205  1.000  0.599  0.803- 143 2.66 197 2.71 196 2.71 135 2.71 207 2.73 182 2.74 150 2.75 141 2.76
                            51 3.14 198 3.16 145 3.17 211 3.18 183 3.18 206 3.23
 206  0.796  0.599  0.796- 389 1.83 374 1.99 373 2.00 150 2.72 147 2.72 204 2.75 141 2.76 193 2.77
                           196 2.85 207 2.87 223 3.13 195 3.14 149 3.17 203 3.19 205 3.23  50 3.28
 207  0.902  0.703  0.900- 389 1.83  56 2.69 219 2.71 211 2.71 223 2.72 205 2.73  51 2.77  50 2.80
                           206 2.87 222 3.09 197 3.10 150 3.15  48 3.16 204 3.22 196 3.26
 208  0.199  0.997  0.804- 381 1.83 214 2.66 209 2.70 151 2.72 166 2.74 171 2.75 155 2.76 118 2.79
                           122 2.89 210 3.08  53 3.13 173 3.15 221 3.15 120 3.20 167 3.32
 209  0.099  0.899  0.901- 208 2.70 211 2.71  58 2.73 221 2.73 165 2.74 210 2.74  56 2.74  53 2.76
                           214 3.09  54 3.15 151 3.16 222 3.18 166 3.18 197 3.18
 210  0.200  0.803  0.798- 387 1.83 151 2.70 214 2.71 155 2.72 209 2.74 143 2.75 146 2.80 197 2.84
                           200 2.86 208 3.08 213 3.11 152 3.11 211 3.13  58 3.21 198 3.32
 211  0.002  0.800  0.801- 143 2.68 209 2.71 207 2.71 222 2.71 163 2.72 151 2.73 197 2.75 150 2.78
                           161 3.10 210 3.13 221 3.15  56 3.17 205 3.18 223 3.20
 212  0.398  0.800  0.000-  61 2.67 200 2.68  43 2.69 202 2.73  41 2.73  59 2.73 214 2.74 216 2.76
                            60 3.14  58 3.17 199 3.17 170 3.17 213 3.20 215 3.21
 213  0.396  0.796  0.798- 388 1.78 390 1.83 377 2.15 146 2.67 200 2.71 155 2.73 156 2.74 202 2.79
                           214 2.83 216 2.87 201 3.09 210 3.11 154 3.13 218 3.17 212 3.20 173 3.32
 214  0.294  0.899  0.903- 390 1.86 208 2.66  58 2.69  53 2.70 210 2.71 170 2.71 212 2.74 213 2.83
                           173 2.86 209 3.09  59 3.12 200 3.18 171 3.20 155 3.21 216 3.30
 215  0.601  0.798  0.998- 232 1.88 216 2.69 204 2.69 202 2.70 217 2.71  43 2.71  44 2.74  61 2.76
                            63 2.80  46 3.13 218 3.13 219 3.15 212 3.21  11 3.22  62 3.27
 216  0.503  0.899  0.902- 390 1.85 215 2.69  11 2.69 177 2.71 218 2.72 212 2.76 170 2.77 173 2.86
                           213 2.87  61 3.12 217 3.13 202 3.16 156 3.20 174 3.22 214 3.30
 217  0.701  0.894  0.898- 382 1.84 223 2.69 215 2.71 219 2.73 177 2.73 218 2.74 220 2.77  11 2.86
                            17 2.88 158 3.06 204 3.09 222 3.12 216 3.13  63 3.19 175 3.34
 218  0.597  0.796  0.800- 377 1.88 370 2.06 202 2.71 216 2.72 204 2.72 147 2.73 158 2.73 217 2.74
                           156 2.79 215 3.13 159 3.16 213 3.17 203 3.19 223 3.20 177 3.24
 219  0.800  0.797  0.000- 207 2.71  44 2.71  48 2.71  63 2.73 217 2.73 204 2.75 222 2.76  66 2.77
                            50 3.12  65 3.15 215 3.15  56 3.18 223 3.19  17 3.23
 220  0.801  1.000  0.801- 222 2.69 163 2.72 130 2.73 178 2.73 126 2.75 158 2.76 217 2.77 175 2.78
                           160 3.07 221 3.14 177 3.16  17 3.18 179 3.20 223 3.20
 221  1.000  1.000  0.801- 151 2.72 163 2.73 118 2.73 222 2.73 209 2.73 178 2.73 130 2.75 166 2.76
                           168 3.13 220 3.14 211 3.15 162 3.15 208 3.15 165 3.16
 222  0.898  0.898  0.896- 391 1.83 220 2.69 211 2.71 223 2.71 221 2.73 219 2.76  17 2.77  56 2.83
                           165 2.86 163 3.06 207 3.09 217 3.12 209 3.18 178 3.20  66 3.28
 223  0.799  0.797  0.799- 217 2.69 158 2.71 150 2.71 222 2.71 207 2.72 163 2.73 147 2.73 204 2.74
                           164 3.12 206 3.13 219 3.19 211 3.20 218 3.20 220 3.20
 224  0.102  0.202  0.153-  20 1.82   2 1.83  14 1.84   1 1.84
 225  0.453  0.002  0.098-  61 1.83 170 1.83   7 1.84   6 1.85
 226  0.474  0.298  0.207-  27 1.85   5 1.88  26 2.00
 227  0.471  0.502  0.202-  40 1.81  42 1.84  26 1.92
 228  0.674  0.510  0.208-  45 1.84  30 1.88  29 2.08
 229  0.288  0.517  0.210-  39 1.87  36 1.92
 230  0.530  0.695  0.214-  62 1.82  45 1.90  43 1.98
 231  0.601  0.897  0.241-  62 1.86 108 1.87 111 1.91  10 1.92
 232  0.603  0.846  0.107-  62 1.82  63 1.83  61 1.85 215 1.88
 233  0.900  0.798  0.251-  65 1.83  99 1.84  57 1.85 116 1.86
 234  0.203  0.102  0.351-  72 1.82  68 1.85 102 1.85  67 1.86
 235  0.520  0.216  0.288-  75 1.86   9 1.95  77 2.16
 236  0.303  0.212  0.475- 121 1.86  73 1.94  68 1.98
 237  0.506  0.207  0.487- 125 1.82  77 1.97  73 2.07
 238  0.503  0.000  0.353-  75 1.81  78 1.82 108 1.83  74 1.88
 239  0.653  0.002  0.296-  76 1.85  10 1.85  78 1.86 111 1.89
 240  0.205  0.474  0.288-  92 1.78  21 1.80  84 2.13
 241  0.395  0.319  0.410-  73 1.81
 242  0.278  0.304  0.410-  85 1.78  68 1.96  84 2.03
 243  0.306  0.408  0.258-  85 1.80  26 1.82  21 1.86
 244  0.307  0.409  0.380-  84 1.74  85 2.12
 245  0.410  0.265  0.301-  85 1.86   5 1.90  73 1.90
 246  0.497  0.401  0.264-  26 1.85  29 1.91
 247  0.461  0.481  0.541- 297 0.65 350 0.80
 248  0.403  0.273  0.503-  73 1.89 123 1.92
 249  0.519  0.485  0.447- 328 0.74
 250  0.519  0.427  0.421- 359 0.76 252 0.78
 251  0.511  0.383  0.549- 253 0.73
 252  0.479  0.416  0.395- 326 0.51 250 0.78
 253  0.521  0.393  0.505- 251 0.73
 254  0.413  0.456  0.450- 338 0.66
 255  0.605  0.538  0.481- 352 0.75
 256  0.499  0.630  0.404- 284 0.84
 257  0.544  0.596  0.468- 269 0.70 342 0.86
 258  0.518  0.544  0.392- 341 0.65 284 0.74
 259  0.502  0.272  0.391-  77 1.87  73 1.90
 260  0.585  0.302  0.254-   9 1.82  29 1.83  86 2.05
 261  0.612  0.312  0.383-  77 1.82  86 1.90
 262  0.380  0.412  0.535- 300 0.73
 263  0.685  0.396  0.373-  86 1.91  89 1.93
 264  0.697  0.403  0.258-  29 1.82  86 1.84  32 1.87
 265  0.742  0.302  0.420-  89 1.88  81 1.89  86 1.90
 266  0.575  0.490  0.284-  29 1.96  45 2.17
 267  0.365  0.464  0.575-
 268  0.596  0.518  0.408- 277 0.49
 269  0.535  0.579  0.508- 257 0.70
 270  0.267  0.419  0.500- 134 1.85  84 1.87
 271  0.207  0.706  0.468- 104 1.83  95 1.83  94 2.03
 272  0.389  0.507  0.281-  42 1.92  26 2.16
 273  0.262  0.572  0.299-  36 1.92  94 1.93  96 2.13
 274  0.414  0.600  0.584- 290 0.62
 275  0.453  0.534  0.607- 298 0.58 363 0.72
 276  0.409  0.393  0.301-  26 1.68
 277  0.582  0.537  0.388- 268 0.49
 278  0.268  0.503  0.411-  94 1.86  84 1.89
 279  0.408  0.690  0.398- 106 1.78
 280  0.316  0.626  0.402-  94 1.91  96 2.03
 281  0.305  0.736  0.422- 106 1.86 104 1.96  96 2.02
 282  0.418  0.700  0.270-  96 1.91  60 1.96  42 2.03
 283  0.387  0.606  0.315-  42 1.88  96 2.04
 284  0.488  0.581  0.389- 258 0.74 256 0.84
 285  0.275  0.589  0.500-  94 1.99 144 2.03
 286  0.605  0.491  0.539- 352 0.81
 287  0.500  0.602  0.271-  45 1.90  42 1.94
 288  0.398  0.739  0.507- 154 1.77 106 1.92
 289  0.729  0.513  0.385- 100 1.74  89 2.14
 290  0.445  0.591  0.562- 274 0.62 299 0.73
 291  0.502  0.724  0.383- 110 1.93 106 2.04
 292  0.598  0.607  0.319-  45 1.91
 293  0.580  0.715  0.299-  62 1.88  97 2.00 110 2.13
 294  0.708  0.582  0.271-  97 1.85  49 1.86  45 2.12
 295  0.629  0.676  0.404- 110 1.96  97 1.99
 296  0.692  0.625  0.401- 100 1.76  97 1.89
 297  0.495  0.503  0.550- 247 0.65 343 0.72 344 0.84
 298  0.421  0.518  0.614- 275 0.58
 299  0.487  0.600  0.545- 368 0.70 290 0.73
 300  0.425  0.406  0.524- 358 0.70 262 0.73
 301  0.590  0.728  0.503- 159 1.88 110 1.90
 302  0.789  0.499  0.276-  90 1.85  32 1.98  49 1.99
 303  0.791  0.700  0.469- 101 1.83 115 1.90 100 1.96
 304  0.789  0.516  0.502- 148 1.90 149 1.95 100 2.01
 305  1.000  0.850  0.499- 117 1.83 113 1.83 105 1.85 161 1.85
 306  0.479  0.782  0.290- 108 1.86  60 1.93
 307  0.698  0.784  0.458- 110 1.80 115 1.90 112 1.98
 308  0.049  0.099  0.598- 162 1.83  69 1.83 129 1.83 118 1.83
 309  0.493  0.223  0.724- 172 1.91 124 1.94 176 2.09
 310  0.730  0.214  0.499-  79 1.80  81 1.96 131 1.97
 311  0.703  0.055  0.600- 160 1.83 126 1.83  79 1.85 128 1.85
 312  0.800  0.051  0.502-  79 1.84  82 1.85 160 1.85 114 1.87
 313  0.212  0.303  0.535- 119 1.87 134 1.90 132 1.91
 314  0.225  0.480  0.715- 181 1.86 135 2.06
 315  0.387  0.488  0.525- 340 0.58
 316  0.393  0.389  0.693- 186 1.77 136 2.02
 317  0.395  0.311  0.609- 123 1.79 136 2.10
 318  0.300  0.265  0.586- 119 1.86 136 1.91 123 1.94
 319  0.433  0.302  0.759- 172 1.73 186 1.84
 320  0.313  0.401  0.608- 134 1.78 136 2.16
 321  0.422  0.501  0.735- 186 1.88 201 1.92
 322  0.568  0.444  0.556- 351 0.62
 323  0.276  0.497  0.602- 134 1.86 144 2.00
 324  0.484  0.420  0.605- 350 0.69
 325  0.363  0.548  0.385-
 326  0.483  0.431  0.367- 252 0.51
 327  0.501  0.268  0.600- 127 1.89 123 1.90
 328  0.508  0.517  0.480- 362 0.64 249 0.74 344 0.86
 329  0.661  0.473  0.455- 367 0.77
 330  0.739  0.394  0.489-  89 1.74 140 1.96
 331  0.603  0.317  0.615- 127 1.88 137 2.01
 332  0.619  0.393  0.681- 137 1.92 191 1.99
 333  0.687  0.366  0.597- 140 1.88 137 1.91
 334  0.732  0.421  0.682- 140 1.77 137 1.98 195 2.15
 335  0.602  0.265  0.503- 127 1.79  77 1.92
 336  0.497  0.407  0.726- 186 1.92 191 2.06
 337  0.582  0.293  0.729- 176 1.84 137 1.90 191 2.12
 338  0.425  0.491  0.430- 254 0.66
 339  0.788  0.300  0.531- 140 1.91 131 1.91  91 1.91
 340  0.392  0.524  0.516- 315 0.58
 341  0.504  0.508  0.378- 258 0.65
 342  0.594  0.597  0.447- 257 0.86
 343  0.524  0.523  0.578- 357 0.60 297 0.72
 344  0.517  0.474  0.512- 297 0.84 328 0.86
 345  0.260  0.700  0.590- 146 1.85 152 1.87 144 1.95
 346  0.316  0.594  0.602- 144 1.89
 347  0.295  0.588  0.732- 146 1.80 198 1.85 201 1.99
 348  0.376  0.690  0.617- 146 1.76 154 1.82
 349  0.399  0.629  0.695- 201 1.74 146 1.88
 350  0.463  0.447  0.579- 324 0.69 247 0.80
 351  0.550  0.449  0.590- 322 0.62
 352  0.592  0.493  0.490- 255 0.75 286 0.81
 353  0.479  0.738  0.621- 154 1.67 159 1.93
 354  0.455  0.568  0.466- 362 0.69
 355  0.466  0.382  0.463- 358 0.63
 356  0.592  0.408  0.313-  29 1.81
 357  0.559  0.536  0.583- 343 0.60
 358  0.437  0.401  0.482- 355 0.63 300 0.70
 359  0.547  0.421  0.460- 250 0.76
 360  0.504  0.713  0.495-
 361  0.727  0.505  0.592- 149 1.83 140 2.01
 362  0.471  0.527  0.469- 328 0.64 354 0.69
 363  0.487  0.537  0.638- 275 0.72
 364  0.511  0.609  0.718- 203 1.86
 365  0.728  0.589  0.499- 149 1.88 100 1.90
 366  0.601  0.510  0.718- 203 1.87 191 2.18
 367  0.649  0.428  0.445- 329 0.77
 368  0.517  0.624  0.566- 299 0.70
 369  0.602  0.671  0.621- 147 1.99 159 2.01
 370  0.575  0.689  0.729- 203 1.90 147 2.01 218 2.06
 371  0.683  0.607  0.614- 149 1.84 147 2.00
 372  0.736  0.703  0.584- 164 1.88 147 1.89 149 1.94
 373  0.688  0.582  0.732- 203 1.86 147 1.96 206 2.00
 374  0.786  0.503  0.715- 141 1.85 206 1.99 195 2.09
 375  0.101  0.743  0.600-  95 1.82 143 1.83 152 1.85 161 1.85
 376  0.507  0.795  0.514- 157 1.74 159 1.85
 377  0.508  0.787  0.721- 156 1.82 218 1.88 213 2.15
 378  0.299  0.784  0.531- 152 1.91 154 1.92 109 1.94
 379  0.553  0.000  0.701- 177 1.81 128 1.82 156 1.83 124 1.84
 380  0.692  0.836  0.595- 159 1.81 112 1.83 164 1.88 158 1.98
 381  0.203  0.101  0.753- 122 1.83 208 1.83 118 1.84 167 1.84
 382  0.701  1.000  0.948-  11 1.84 217 1.84  17 1.84 175 1.85
 383  0.301  0.472  0.784- 187 1.93 186 1.94 181 1.96
 384  0.516  0.505  0.790- 203 1.89 192 1.90 191 2.12
 385  0.696  0.469  0.787- 191 1.86 193 1.92 195 1.98
 386  0.999  0.300  0.951-  13 1.83 194 1.83 180 1.84  24 1.84
 387  0.202  0.698  0.847- 200 1.83 210 1.83 198 1.83 197 1.86
 388  0.457  0.702  0.786- 213 1.78 201 1.86 202 1.97
 389  0.849  0.600  0.898-  50 1.82 207 1.83 206 1.83 196 1.84
 390  0.399  0.900  0.849- 213 1.83 173 1.84 216 1.85 214 1.86
 391  0.949  0.899  0.000-  66 1.83  56 1.83 222 1.83 165 1.83
 

IMPORTANT INFORMATION: All symmetrisations will be switched off!
NOSYMM: (Re-)initialisation of all symmetry stuff for point group C_1.

 
 

Automatic generation of k-mesh.
 generate k-points for:    1    1    1
Space group operators:
 irot       det(A)        alpha          n_x          n_y          n_z        tau_x        tau_y        tau_z
    1     1.000000     0.000000     1.000000     0.000000     0.000000     0.000000     0.000000     0.000000
 
 Subroutine IBZKPT returns following result:
 ===========================================
 
 Found      1 irreducible k-points:
 
 Following reciprocal coordinates:
            Coordinates               Weight
  0.000000  0.000000  0.000000      1.000000
 
 Following cartesian coordinates:
            Coordinates               Weight
  0.000000  0.000000  0.000000      1.000000
 


--------------------------------------------------------------------------------------------------------




 Dimension of arrays:
   k-points           NKPTS =      1   k-points in BZ     NKDIM =      1   number of bands    NBANDS=    960
   number of dos      NEDOS =    301   number of ions     NIONS =    391
   non local maximal  LDIM  =      6   non local SUM 2l+1 LMDIM =     18
   total plane-waves  NPLWV = 729000
   max r-space proj   IRMAX =   3007   max aug-charges    IRDMAX=  10728
   dimension x,y,z NGX =    90 NGY =   90 NGZ =   90
   dimension x,y,z NGXF=   180 NGYF=  180 NGZF=  180
   support grid    NGXF=   180 NGYF=  180 NGZF=  180
   ions per type =             223 168
   NGX,Y,Z   is equivalent  to a cutoff of   9.46,  9.46,  9.46 a.u.
   NGXF,Y,Z  is equivalent  to a cutoff of  18.93, 18.93, 18.93 a.u.

 SYSTEM =  W-H                                     
 POSCAR =  POSCAR file written by OVITO Basic 3.3.5

 Startparameter for this run:
   NWRITE =      2    write-flag & timer
   PREC   = normal    normal or accurate (medium, high low for compatibility)
   ISTART =      0    job   : 0-new  1-cont  2-samecut
   ICHARG =      2    charge: 1-file 2-atom 10-const
   ISPIN  =      1    spin polarized calculation?
   LNONCOLLINEAR =      F non collinear calculations
   LSORBIT =      F    spin-orbit coupling
   INIWAV =      1    electr: 0-lowe 1-rand  2-diag
   LASPH  =      F    aspherical Exc in radial PAW
   METAGGA=      F    non-selfconsistent MetaGGA calc.

 Electronic Relaxation 1
   ENCUT  =  500.0 eV  36.75 Ry    6.06 a.u.  28.83 28.83 28.83*2*pi/ulx,y,z
   ENINI  =  500.0     initial cutoff
   ENAUG  =  400.0 eV  augmentation charge cutoff
   NELM   =    100;   NELMIN=  2; NELMDL= -5     # of ELM steps 
   EDIFF  = 0.1E-05   stopping-criterion for ELM
   LREAL  =      T    real-space projection
   NLSPLINE    = F    spline interpolate recip. space projectors
   LCOMPAT=      F    compatible to vasp.4.4
   GGA_COMPAT  = T    GGA compatible to vasp.4.4-vasp.4.6
   LMAXPAW     = -100 max onsite density
   LMAXMIX     =    2 max onsite mixed and CHGCAR
   VOSKOWN=      0    Vosko Wilk Nusair interpolation
   ROPT   =   -0.00050  -0.00050
 Ionic relaxation
   EDIFFG = 0.1E-04   stopping-criterion for IOM
   NSW    =     50    number of steps for IOM
   NBLOCK =      1;   KBLOCK =     50    inner block; outer block 
   IBRION =      0    ionic relax: 0-MD 1-quasi-New 2-CG
   NFREE  =      0    steps in history (QN), initial steepest desc. (CG)
   ISIF   =      2    stress and relaxation
   IWAVPR =     12    prediction:  0-non 1-charg 2-wave 3-comb
   ISYM   =      0    0-nonsym 1-usesym 2-fastsym
   LCORR  =      T    Harris-Foulkes like correction to forces

   POTIM  = 1.0000    time-step for ionic-motion
   TEIN   =  300.0    initial temperature
   TEBEG  =  300.0;   TEEND  = 300.0 temperature during run
   SMASS  =   0.09    Nose mass-parameter (am)
   estimated Nose-frequenzy (Omega)   =  0.16E+15 period in steps = 40.00 mass=   0.180E-27a.u.
   SCALEE = 1.0000    scale energy and forces
   NPACO  =    256;   APACO  = 16.0  distance and # of slots for P.C.
   PSTRESS=    0.0 pullay stress

  Mass of Ions in am
   POMASS = 183.85  1.00
  Ionic Valenz
   ZVAL   =   6.00  1.00
  Atomic Wigner-Seitz radii
   RWIGS  =  -1.00 -1.00
  virtual crystal weights 
   VCA    =   1.00  1.00
   NELECT =    1506.0000    total number of electrons
   NUPDOWN=      -1.0000    fix difference up-down

 DOS related values:
   EMIN   =  10.00;   EMAX   =-10.00  energy-range for DOS
   EFERMI =   0.00
   ISMEAR =     1;   SIGMA  =   0.10  broadening in eV -4-tet -1-fermi 0-gaus

 Electronic relaxation 2 (details)
   IALGO  =     68    algorithm
   LDIAG  =      T    sub-space diagonalisation (order eigenvalues)
   LSUBROT=      F    optimize rotation matrix (better conditioning)
   TURBO    =      0    0=normal 1=particle mesh
   IRESTART =      0    0=no restart 2=restart with 2 vectors
   NREBOOT  =      0    no. of reboots
   NMIN     =      0    reboot dimension
   EREF     =   0.00    reference energy to select bands
   IMIX   =      4    mixing-type and parameters
     AMIX     =   0.40;   BMIX     =  1.00
     AMIX_MAG =   1.60;   BMIX_MAG =  1.00
     AMIN     =   0.10
     WC   =   100.;   INIMIX=   1;  MIXPRE=   1;  MAXMIX= -45

 Intra band minimization:
   WEIMIN = 0.0010     energy-eigenvalue tresh-hold
   EBREAK =  0.26E-09  absolut break condition
   DEPER  =   0.30     relativ break condition  

   TIME   =   0.40     timestep for ELM

  volume/ion in A,a.u.               =      10.11        68.21
  Fermi-wavevector in a.u.,A,eV,Ry     =   1.186893  2.242902 19.166726  1.408715
  Thomas-Fermi vector in A             =   2.323056
 
 Write flags
   LWAVE        =      F    write WAVECAR
   LDOWNSAMPLE  =      F    k-point downsampling of WAVECAR
   LCHARG       =      F    write CHGCAR
   LVTOT        =      F    write LOCPOT, total local potential
   LVHAR        =      F    write LOCPOT, Hartree potential only
   LELF         =      F    write electronic localiz. function (ELF)
   LORBIT       =      0    0 simple, 1 ext, 2 COOP (PROOUT), +10 PAW based schemes


 Dipole corrections
   LMONO  =      F    monopole corrections only (constant potential shift)
   LDIPOL =      F    correct potential (dipole corrections)
   IDIPOL =      0    1-x, 2-y, 3-z, 4-all directions 
   EPSILON=  1.0000000 bulk dielectric constant

 Exchange correlation treatment:
   GGA     =    --    GGA type
   LEXCH   =     7    internal setting for exchange type
   VOSKOWN=      0    Vosko Wilk Nusair interpolation
   LHFCALC =     F    Hartree Fock is set to
   LHFONE  =     F    Hartree Fock one center treatment
   AEXX    =    0.0000 exact exchange contribution

 Linear response parameters
   LEPSILON=     F    determine dielectric tensor
   LRPA    =     F    only Hartree local field effects (RPA)
   LNABLA  =     F    use nabla operator in PAW spheres
   LVEL    =     F    velocity operator in full k-point grid
   LINTERFAST=   F  fast interpolation
   KINTER  =     0    interpolate to denser k-point grid
   CSHIFT  =0.1000    complex shift for real part using Kramers Kronig
   OMEGAMAX=  -1.0    maximum frequency
   DEG_THRESHOLD= 0.2000000E-02 threshold for treating states as degnerate
   RTIME   =   -0.100 relaxation time in fs
  (WPLASMAI=    0.000 imaginary part of plasma frequency in eV, 0.658/RTIME)
   DFIELD  = 0.0000000 0.0000000 0.0000000 field for delta impulse in time
 
 Orbital magnetization related:
   ORBITALMAG=     F  switch on orbital magnetization
   LCHIMAG   =     F  perturbation theory with respect to B field
   DQ        =  0.001000  dq finite difference perturbation B field
   LLRAUG    =     F  two centre corrections for induced B field



--------------------------------------------------------------------------------------------------------


 molecular dynamics for ions
   using nose mass (canonical ensemble)
 charge density and potential will be updated during run
 non-spin polarized calculation
 RMM-DIIS sequential band-by-band and
  variant of blocked Davidson during initial phase
 perform sub-space diagonalisation
    before iterative eigenvector-optimisation
 modified Broyden-mixing scheme, WC =      100.0
 initial mixing is a Kerker type mixing with AMIX =  0.4000 and BMIX =      1.0000
 Hartree-type preconditioning will be used
 using additional bands          207
 real space projection scheme for non local part
 use partial core corrections
 calculate Harris-corrections to forces 
   (improved forces if not selfconsistent)
 use gradient corrections 
 use of overlap-Matrix (Vanderbilt PP)
 Methfessel and Paxton  Order N= 1 SIGMA  =   0.10


--------------------------------------------------------------------------------------------------------


  energy-cutoff  :      500.00
  volume of cell :     3951.98
      direct lattice vectors                 reciprocal lattice vectors
    15.810234548  0.000000000  0.000000000     0.063250169  0.000000000  0.000000000
     0.000000000 15.810234548  0.000000000     0.000000000  0.063250169  0.000000000
     0.000000000  0.000000000 15.810234548     0.000000000  0.000000000  0.063250169

  length of vectors
    15.810234548 15.810234548 15.810234548     0.063250169  0.063250169  0.063250169


 
 k-points in units of 2pi/SCALE and weight: read from INCAR                         
   0.00000000  0.00000000  0.00000000       1.000
 
 k-points in reciprocal lattice and weights: read from INCAR                         
   0.00000000  0.00000000  0.00000000       1.000
 
 position of ions in fractional coordinates (direct lattice) 
   0.10237166  0.09851340  0.10019839
   0.20627524  0.20315954  0.20233160
   0.20066053  0.20129682  0.00001046
   0.30057619  0.10189918  0.09958107
   0.40328371  0.20303051  0.19882880
   0.39849757  0.99894154  0.20131137
   0.50106025  0.10775868  0.09687269
   0.70170369  0.10415279  0.09912693
   0.60124661  0.20272565  0.19656698
   0.59999553  0.00759622  0.19100349
   0.59750663  0.00160580  0.00018306
   0.60146989  0.20152452  0.99670248
   0.99966259  0.19685350  0.00332806
   0.99571578  0.20103560  0.20152642
   0.89991707  0.10053994  0.10193397
   0.80072183  0.20274336  0.19874278
   0.80440299  0.00178202  0.00178851
   0.80002608  0.00301987  0.19940628
   0.80174649  0.20119689  0.99963096
   0.10031477  0.30411250  0.09936348
   0.20245240  0.40059115  0.20163648
   0.19935947  0.40001178  0.00069378
   0.99943489  0.40116103  0.19892937
   0.99884034  0.40427863  0.00261471
   0.30081464  0.30007461  0.09813200
   0.40222110  0.40116672  0.19587439
   0.50105202  0.29974255  0.09339330
   0.70098264  0.29963819  0.09656783
   0.59785008  0.40299529  0.19883829
   0.70038809  0.49952959  0.09219598
   0.89865207  0.30119541  0.10104467
   0.80050678  0.39963733  0.20079588
   0.80145554  0.39976004  0.99943489
   0.09996310  0.50007924  0.10164302
   0.09999156  0.69840836  0.10021483
   0.19883133  0.59899554  0.19911659
   0.19867004  0.59782478  0.00076907
   0.00004209  0.60147621  0.19742149
   0.29749907  0.49858843  0.09390500
   0.50016020  0.49603881  0.09162546
   0.29677675  0.69969234  0.09729204
   0.40169360  0.59514614  0.19768587
   0.49854162  0.69813006  0.09269122
   0.70098897  0.69723191  0.09774302
   0.59521508  0.59564708  0.19895594
   0.59996137  0.60027572  0.99829006
   0.89969570  0.49988063  0.09941472
   0.89995502  0.69878154  0.09960194
   0.80048781  0.59913785  0.20117665
   0.80059533  0.60000059  0.00319057
   0.99968789  0.59895822  0.00152229
   0.19963145  0.99995122  0.19915075
   0.19931267  0.00099532  0.00156499
   0.10146466  0.90041675  0.10027745
   0.20016022  0.79874843  0.19969659
   0.00188046  0.79601602  0.00109786
   0.00445690  0.80168324  0.19707741
   0.19802616  0.79964026  0.00132135
   0.29838330  0.89937312  0.10031287
   0.39888782  0.79909630  0.19878010
   0.49672887  0.89493296  0.09944761
   0.60116818  0.78492194  0.20492296
   0.70448670  0.90098600  0.09947860
   0.99973216  0.00146346  0.20048912
   0.79647142  0.79669280  0.19945371
   0.89831052  0.89981587  0.10401111
   0.09713012  0.10031160  0.29828147
   0.20089772  0.20725752  0.40173028
   0.10297823  0.10033690  0.49539050
   0.00039441  0.00065620  0.39971071
   0.00023547  0.20154603  0.39984163
   0.30517574  0.09931541  0.29796459
   0.40384663  0.20451626  0.40496806
   0.39417505  0.00086763  0.40037673
   0.50043407  0.09984419  0.29648896
   0.70291177  0.10721916  0.29923212
   0.59594372  0.19996794  0.40064112
   0.60659884  0.00022787  0.40368345
   0.69740268  0.10560628  0.49537785
   0.90008152  0.10197888  0.30102653
   0.80197419  0.20050873  0.39988781
   0.90450271  0.10200038  0.50017791
   0.09904850  0.30286205  0.30087599
   0.19966181  0.40495098  0.40386371
   0.29824225  0.30186396  0.29955849
   0.70358855  0.29701267  0.30647679
   0.00049274  0.39933563  0.39733123
   0.89990442  0.30172481  0.30145916
   0.80342894  0.40145704  0.39991880
   0.90375636  0.50062192  0.30142247
   0.90453434  0.30240981  0.50006785
   0.09630154  0.49992933  0.29877292
   0.09913768  0.69934446  0.29786402
   0.19877757  0.59724035  0.40033498
   0.09499290  0.69783911  0.49441961
   0.30081970  0.70104589  0.29890385
   0.70463850  0.69437300  0.30479750
   0.00050176  0.59898352  0.39744888
   0.90054957  0.69374682  0.30118465
   0.79981736  0.59542254  0.40318757
   0.90264948  0.69788338  0.50060990
   0.19971114  0.99619648  0.39984037
   0.10031034  0.89939210  0.29905628
   0.20108494  0.80049413  0.40034257
   0.10456391  0.90172603  0.50042774
   0.40127172  0.80203744  0.40372456
   0.29968879  0.90001195  0.29917013
   0.49880348  0.89739972  0.29992091
   0.30047625  0.90272538  0.50116840
   0.59817772  0.79656630  0.40470114
   0.70537853  0.89514801  0.30163942
   0.70141274  0.90124533  0.49965609
   0.00172573  0.80017788  0.39452293
   0.80170221  0.99900479  0.39625219
   0.80370724  0.79857765  0.40205982
   0.90135918  0.90512256  0.30078175
   0.89665336  0.90178295  0.49929746
   0.09894350  0.10107756  0.70217807
   0.20062005  0.20421708  0.59904235
   0.19977692  0.00070664  0.60145408
   0.30049776  0.09727117  0.50081294
   0.30427822  0.10173537  0.69702951
   0.40269485  0.19827347  0.59792472
   0.49868077  0.10311675  0.69828186
   0.49898943  0.09286453  0.50148149
   0.70010347  0.10433938  0.70508758
   0.59813787  0.19931773  0.59491148
   0.60035668  0.99851144  0.59637698
   0.99883401  0.20351121  0.60023777
   0.89951860  0.10057346  0.70091307
   0.80030438  0.20195146  0.60144206
   0.09599668  0.30217199  0.49954730
   0.09931858  0.30018909  0.69995799
   0.20123800  0.40596362  0.59551615
   0.09716175  0.49999321  0.70202627
   0.30000377  0.30207395  0.70105854
   0.69739003  0.30184119  0.69835776
   0.00033847  0.39894095  0.60222320
   0.90011315  0.30173683  0.69852854
   0.80087363  0.40091499  0.59624100
   0.90152363  0.49974970  0.69845896
   0.09639452  0.50127656  0.49994767
   0.09713518  0.69683343  0.70592881
   0.19629437  0.59520622  0.60153314
   0.99928941  0.59955088  0.60206823
   0.30149268  0.69690301  0.69931916
   0.69769363  0.70083084  0.69737106
   0.90770317  0.49784018  0.50202861
   0.79723042  0.59709551  0.59509490
   0.89918337  0.69795296  0.70060947
   0.10013387  0.90168808  0.70104589
   0.20179650  0.80264464  0.60109608
   0.39819523  0.99969421  0.60153061
   0.39762977  0.80161999  0.59976909
   0.30119414  0.90144140  0.69969866
   0.49509702  0.89974630  0.70020467
   0.49544806  0.90401568  0.50271550
   0.69795296  0.89753887  0.70393010
   0.58512604  0.79556695  0.60102777
   0.80315064  0.99687958  0.60626805
   0.99810031  0.79953273  0.60477661
   0.99763858  0.99553868  0.60144143
   0.90043572  0.89864574  0.70261450
   0.80508610  0.79834995  0.60158817
   0.00217156  0.00257658  0.00096031
   0.10042040  0.10074234  0.90140345
   0.20226076  0.20749028  0.80114561
   0.99926411  0.19783957  0.80139229
   0.39821927  0.19974909  0.99777141
   0.39621044  0.00079516  0.99665188
   0.29950410  0.10205415  0.90031555
   0.39980052  0.20480341  0.79833730
   0.39873918  0.00561839  0.80057636
   0.49917666  0.10222239  0.89941740
   0.70174165  0.10584979  0.89905687
   0.59949459  0.20238093  0.79864723
   0.60124788  0.00104646  0.80528217
   0.90040410  0.10010098  0.90061282
   0.79979206  0.20173578  0.79865988
   0.10301998  0.30062362  0.89921500
   0.20019437  0.40112435  0.79854603
   0.10134385  0.49898754  0.90066343
   0.99939061  0.39835652  0.80103808
   0.39772212  0.39708519  0.99909966
   0.30127320  0.30192974  0.90049265
   0.40322425  0.40537349  0.80346689
   0.30095063  0.49905585  0.90287718
   0.50059030  0.30203853  0.90119473
   0.60172479  0.39725280  0.99887829
   0.70124829  0.30100123  0.90010682
   0.60069191  0.40232989  0.80504815
   0.49831013  0.49993123  0.90827242
   0.70022997  0.50007038  0.90452801
   0.89616634  0.30024855  0.89743767
   0.80005138  0.40042100  0.79795148
   0.90229528  0.49639871  0.89926560
   0.09789608  0.69791501  0.90277598
   0.19955428  0.59308292  0.79882433
   0.39729265  0.59972165  0.00034705
   0.30278045  0.69863606  0.90377533
   0.39959938  0.60071531  0.80106971
   0.49929177  0.69921164  0.90335788
   0.59359461  0.59423597  0.80117724
   0.69843366  0.69868034  0.89969570
   0.99981436  0.59940414  0.80266994
   0.79554797  0.59884627  0.79579465
   0.90180825  0.70275365  0.90005622
   0.19945814  0.99727173  0.80389067
   0.09892010  0.89932885  0.90092275
   0.19981487  0.80279644  0.79804635
   0.00164693  0.80031703  0.80074081
   0.39829643  0.80009566  0.00032487
   0.39619083  0.79594012  0.79783763
   0.29447571  0.89942372  0.90290881
   0.60128077  0.79812225  0.99829006
   0.50322720  0.89890507  0.90225100
   0.70090674  0.89431311  0.89769067
   0.59663631  0.79599072  0.80038028
   0.80046251  0.79742650  0.00044714
   0.80136066  0.99965626  0.80056371
   0.99996619  0.99978276  0.80088628
   0.89815239  0.89789939  0.89635609
   0.79924178  0.79699007  0.79881168
   0.10155953  0.20220889  0.15342340
   0.45263022  0.00191874  0.09791822
   0.47441927  0.29827514  0.20721957
   0.47078555  0.50156435  0.20236132
   0.67367122  0.51011577  0.20751874
   0.28772565  0.51734590  0.21011643
   0.52974483  0.69528380  0.21386843
   0.60113213  0.89717834  0.24089839
   0.60283609  0.84555355  0.10731340
   0.90032820  0.79847645  0.25064271
   0.20271047  0.10229134  0.35063427
   0.51979178  0.21579882  0.28832842
   0.30270898  0.21207465  0.47451541
   0.50602222  0.20671926  0.48704338
   0.50344667  0.00008004  0.35312000
   0.65255199  0.00188081  0.29564267
   0.20527526  0.47384180  0.28836954
   0.39484424  0.31855252  0.40996545
   0.27807747  0.30350783  0.41031839
   0.30564442  0.40791488  0.25810749
   0.30694738  0.40864163  0.37992985
   0.40973586  0.26470828  0.30139970
   0.49676113  0.40147791  0.26443694
   0.46122086  0.48087206  0.54137401
   0.40269358  0.27346653  0.50266427
   0.51912639  0.48523126  0.44669799
   0.51899420  0.42696014  0.42092481
   0.51146490  0.38333903  0.54882867
   0.47852864  0.41617662  0.39512570
   0.52111434  0.39340087  0.50459972
   0.41315643  0.45628545  0.44993071
   0.60478546  0.53791422  0.48139324
   0.49870101  0.63043910  0.40372456
   0.54376423  0.59623594  0.46760027
   0.51773236  0.54423291  0.39196635
   0.50231007  0.27204340  0.39103341
   0.58497361  0.30164195  0.25375651
   0.61226353  0.31245141  0.38259331
   0.38040233  0.41239869  0.53458283
   0.68469572  0.39553619  0.37322217
   0.69674488  0.40280427  0.25798732
   0.74176635  0.30200311  0.42026385
   0.57545067  0.48979729  0.28441703
   0.36534499  0.46364967  0.57511038
   0.59563253  0.51764317  0.40835827
   0.53474539  0.57946832  0.50761866
   0.26737744  0.41863452  0.50019372
   0.20736884  0.70632096  0.46752754
   0.38931048  0.50716072  0.28082759
   0.26201382  0.57226539  0.29911637
   0.41387811  0.59982096  0.58426521
   0.45341959  0.53362396  0.60709156
   0.40897432  0.39295748  0.30148699
   0.58208245  0.53655497  0.38764257
   0.26787648  0.50258837  0.41103122
   0.40825644  0.68989489  0.39758234
   0.31606236  0.62581172  0.40155002
   0.30527504  0.73623829  0.42161740
   0.41781354  0.69969234  0.26996880
   0.38717073  0.60635723  0.31489982
   0.48844753  0.58073901  0.38896577
   0.27512748  0.58921011  0.50028543
   0.60527881  0.49068848  0.53948219
   0.49961751  0.60160082  0.27122495
   0.39754881  0.73887582  0.50713669
   0.72881272  0.51313280  0.38476469
   0.44512180  0.59076290  0.56191260
   0.50208680  0.72410690  0.38252310
   0.59754838  0.60651409  0.31941272
   0.57991550  0.71528351  0.29912712
   0.70753536  0.58206474  0.27106113
   0.62865608  0.67637833  0.40363095
   0.69215924  0.62451003  0.40114142
   0.49478393  0.50317596  0.54962436
   0.42136820  0.51768049  0.61431853
   0.48698645  0.59983361  0.54463708
   0.42502342  0.40557147  0.52437426
   0.58951118  0.72783234  0.50306907
   0.78946330  0.49862448  0.27630140
   0.79106353  0.69964174  0.46932764
   0.78883080  0.51628962  0.50232588
   0.99976149  0.84986721  0.49912226
   0.47866526  0.78183533  0.28989956
   0.69817434  0.78354309  0.45784710
   0.04876038  0.09903332  0.59769132
   0.49273020  0.22300871  0.72353133
   0.72980574  0.21435103  0.49943345
   0.70294340  0.05454695  0.60032759
   0.79965923  0.05064802  0.50244606
   0.21172931  0.30290948  0.53498258
   0.22528002  0.48026359  0.71501153
   0.38732506  0.48846334  0.52545584
   0.39284490  0.38907456  0.69338630
   0.39481388  0.31069242  0.60861905
   0.30048194  0.26506501  0.58584393
   0.43282217  0.30182348  0.75921707
   0.31305038  0.40050892  0.60757732
   0.42170089  0.50118042  0.73514406
   0.56849188  0.44361201  0.55597973
   0.27593708  0.49651762  0.60154073
   0.48361585  0.41960288  0.60527818
   0.36307558  0.54824044  0.38458822
   0.48264939  0.43132440  0.36724439
   0.50060801  0.26805611  0.59957618
   0.50822206  0.51688986  0.47950902
   0.66136906  0.47314795  0.45531772
   0.73894539  0.39411117  0.48895796
   0.60279941  0.31653484  0.61475875
   0.61903066  0.39313459  0.68071729
   0.68729531  0.36642594  0.59709487
   0.73214600  0.42073822  0.68215307
[...]
      3.16347      6.34013     12.62853         0.389443     -0.167714     -0.002731
      1.60106      7.89140     14.23691        -0.383311     -0.141400      0.065550
     15.80398      6.29645     12.66267         0.279266      0.235496     -0.174356
      6.29015      6.28037     15.79758         0.057270      0.021641      0.064075
      4.76857      4.77197     14.23137        -0.376320     -0.100118      0.208175
      6.37273      6.40947     12.70195         0.431931     -0.537702     -0.578750
      4.75852      7.88561     14.27552        -0.062084      0.529311      0.298342
      7.91541      4.77280     14.25074         0.200965     -0.046083      0.029580
      9.50954      6.27773     15.79117         0.226098      0.271978      0.213852
     11.08459      4.75968     14.23005        -0.031254      0.040008     -0.420060
      9.49897      6.35806     12.72853        -1.118992     -0.215887     -1.595442
      7.87664      7.90098     14.35980         0.346672      0.230809     -1.019452
     11.07386      7.90456     14.30226        -0.196894     -0.306893     -0.416558
     14.17011      4.75018     14.19272         0.111406     -0.074319     -0.220606
     12.65296      6.32929     12.61645        -0.621244      0.329915     -0.197536
     14.26516      7.85227     14.21111        -0.299913      0.115674      0.038587
      1.54503     11.03429     14.27102         0.236595     -0.060565     -0.082283
      3.15501      9.37743     12.63134        -0.332597      0.304239      0.330393
      6.28462      9.48564      0.00782        -0.045574     -0.023680      0.171708
      4.78727     11.04977     14.28568        -0.165171     -0.076901     -0.086089
      6.31841      9.49668     12.66715         0.631313     -0.664628      0.319403
      7.89545     11.05372     14.27826        -0.360742     -0.283621     -0.056600
      9.38800      9.39742     12.66744         0.715384      0.685949     -0.317747
     11.04395     11.04314     14.22427         0.172692     -0.157092     -0.280512
     15.80535      9.48159     12.68671        -0.182087     -0.197917     -0.370661
     12.57624      9.46609     12.58158        -0.233674     -0.064046     -0.707851
     14.25994     11.11019     14.22828        -0.167724     -0.126805      0.038397
      3.14867     15.76943     12.70346         0.037106     -0.161986      0.092723
      1.56012     14.21890     14.24109         0.182167      0.114334     -0.000883
      3.16153     12.69173     12.61647         0.075798      0.096502     -0.364720
      0.02759     12.64982     12.65932        -0.220202      0.010789      0.136235
      6.29795     12.65006      0.00249        -0.249403     -0.132047      0.027697
      6.26290     12.58476     12.61525         0.082662      0.571230      0.081091
      4.65907     14.22630     14.27424         0.159904     -0.041880     -0.079811
      9.50580     12.61154     15.78407         0.244283      0.144046     -0.664688
      7.95784     14.21234     14.26449         0.199793     -0.094546     -0.012033
     11.07762     14.14280     14.19341        -0.084116      0.079495      0.221527
      9.42943     12.58790     12.65549         0.289906     -0.104504     -0.090302
     12.65968     12.61117      0.00684         0.010761      0.359422     -0.116402
     12.66723     15.80662     12.65763        -0.064545      0.105426     -0.053961
      0.00319     15.80641     12.66111         0.067081     -0.027600      0.262061
     14.19939     14.19835     14.17171        -0.251982      0.320064     -0.184831
     12.63475     12.59879     12.63180        -0.156116      0.002593      0.063780
      1.60937      3.19362      2.38037        -0.052829     -0.085316      0.242190
      7.18836     15.79554      1.60305        -0.124506      0.440596     -0.386375
      7.47846      4.68651      3.21938        -0.176749      0.361511      0.661578
      7.42188      7.88800      3.19904         0.266376      0.145209      0.219248
     10.65614      8.06307      3.25406        -0.038311     -0.432255     -0.002365
      4.47317      8.15158      3.29820         0.177881     -0.031822     -0.004715
      8.35923     11.02402      3.37428        -0.383264     -0.155859     -0.376455
      9.48840     14.20437      3.83735         0.273405     -0.110448     -0.153056
      9.49071     13.31436      1.68645         0.230598      0.462173     -0.230077
     14.22028     12.58119      3.96455         0.165582      0.423668     -0.042787
      3.16842      1.61504      5.57423         0.175644      0.156185     -0.108615
      8.18634      3.44999      4.58291         0.268956     -0.544248     -0.228478
      4.81729      3.34833      7.52510        -0.296629      0.018454     -0.225020
      8.01896      3.23938      7.69382        -0.095026      0.366903      0.120923
      7.93487      0.02919      5.59875         0.020220     -0.297776      0.113088
     10.33823      0.08242      4.69176        -0.079221     -0.499374     -0.185412
      3.27395      7.50353      4.51761         0.486576      0.145700      0.904065
      6.27375      5.01126      6.51324        -0.280184     -0.829487     -0.377856
      4.38910      4.77025      6.50196        -0.741503      0.016194      0.847997
      4.84950      6.44965      4.11402        -0.333134      1.020879     -0.287509
      4.85919      6.42746      6.01684         0.437368     -0.063731     -0.061161
      6.46704      4.18136      4.78831         0.463402     -0.199655      0.097759
      7.80916      6.34790      4.13918         0.543612     -0.273053     -0.327985
      7.13137      7.55325      8.52231        -1.069878     -0.191243     -0.724997
      6.35674      4.23856      7.94563         0.174193      0.011601      0.123063
      8.25649      7.59018      7.02144        -0.049603      0.597168     -0.992251
      8.32203      6.74532      6.66560         1.112126     -1.409609     -3.743810
      8.09757      5.95887      8.72853         0.434822     -2.097326      0.547381
      7.45240      6.40350      6.34407        -1.368988     -0.618275     -3.715525
      8.25345      6.11644      7.95497         0.995807     -2.685805      1.948879
      6.49612      7.16913      7.11496        -2.068035      0.862636     -2.064673
      9.60130      8.53705      7.60770         2.149398      2.015738      0.444431
      7.84441     10.01080      6.40151        -0.632842      1.431634     -0.696787
      8.68561      9.49288      7.32107         1.109450      1.989371     -0.728453
      8.22415      8.60407      6.18203         0.603758     -0.891414     -1.062148
      7.98560      4.25041      6.17144        -0.391051      0.232891      0.252603
      9.28069      4.80302      4.01024        -0.097902     -0.144272      0.301371
      9.69883      4.92220      6.05508        -0.108699     -0.043375      0.120611
      5.98251      6.48816      8.48231        -4.358846     -2.051234      0.906297
     10.84384      6.25909      5.87605         1.001608     -0.634218     -0.577214
     10.99499      6.38939      4.06149         0.495461      0.579989      0.053865
     11.75351      4.74150      6.64237        -0.239642      0.132486     -0.069485
      9.05535      7.75887      4.43745         0.641642      0.159674     -1.363139
      5.81157      7.32192      9.15425        -1.356906      1.071722      3.987529
      9.56308      8.02031      6.60129         1.040532      1.596286     -3.115115
      8.41832      9.18958      8.07569         0.421248      0.495035      0.668418
      4.22257      6.54617      7.85244        -0.163984     -0.071217      0.203721
      3.30515     11.13867      7.39845         0.103215     -0.419221      0.091922
      6.13970      7.96206      4.41973         0.247096     -0.125995     -1.009026
      4.17390      9.06467      4.71067        -0.325270      0.661520      0.106820
      6.45760      9.54830      9.29947        -3.110418      1.006063      0.832226
      7.31583      8.45092      9.62792        -2.109487      0.009836      1.035942
      6.43545      6.21832      4.74482        -0.132987     -0.380410      1.412742
      9.20206      8.63808      5.89887         3.576177     -0.979968     -0.212831
      4.26718      7.96892      6.49088        -0.339795     -0.417283     -0.142814
      6.42876     10.86813      6.23998        -0.359511      0.548343     -0.195946
      4.96270      9.88454      6.34336        -0.408446     -0.332441     -0.153820
      4.88259     11.64259      6.67641        -0.670738      0.395334     -0.283576
      6.57762     11.08346      4.26875         0.024312     -0.135067     -0.668272
      6.10624      9.49490      4.98498        -0.222497     -0.194348     -0.297425
      7.66783      9.30625      6.10549        -1.902951      2.898957     -1.247407
      4.29726      9.35607      7.89205        -0.884248      0.063208      0.190634
      9.62015      7.79114      8.61054         2.117570      0.845868      1.995259
      7.93531      9.50502      4.27426        -0.525410     -0.242251     -0.529697
      6.25117     11.70851      7.97995         0.237423     -0.794548     -0.424901
     11.53125      8.07437      6.05120         0.479240     -0.477267      0.175759
      6.98398      9.32143      8.83588        -4.491129      0.387278      0.275928
      7.95516     11.52824      6.05538         0.086510      0.616159      0.450488
      9.49473      9.49353      5.04238         0.189713     -0.053212     -0.530372
      9.15970     11.26202      4.71298         0.466379      0.786826      0.079021
     11.17985      9.20830      4.26720        -0.232317      0.002537      0.168294
      9.89449     10.73759      6.38965        -0.155421      1.211611     -0.185464
     10.93916      9.85291      6.33711        -0.029545     -0.086313     -0.089307
      7.88469      8.00189      8.60727        -0.055318      0.729825      0.085233
      6.47939      8.06801      9.75691        -3.430859     -2.463240      0.923833
      7.71168      9.53172      8.55455         2.550716      3.207185     -0.883414
      6.69278      6.41971      8.39720         0.809475     -2.673611      1.538401
      9.32789     11.50858      7.91695         0.196826     -0.130932      0.007151
     12.45705      7.93001      4.29168        -0.113052     -0.334611     -0.115760
     12.48395     11.08371      7.38563        -0.223748     -0.176134      0.013074
     12.46252      8.20022      7.94427         0.650711     -0.359262     -0.155586
     15.79050     13.38762      7.89538         0.182206      0.157432     -0.003321
      7.60138     12.38080      4.59886        -0.086971      0.375530     -0.421271
     11.02364     12.40529      7.23183         0.669659     -0.026400      0.497391
      0.81281      1.55297      9.43425        -0.094039      0.041468      0.127116
      7.79733      3.55281     11.44618         0.165694     -0.622831     -0.007255
     11.53838      3.42781      7.85568        -0.127745      0.168149      0.302207
     11.14538      0.92036      9.47808        -0.308364     -0.269658      0.236607
     12.67978      0.76459      7.87246        -0.154685      0.156642      0.611901
      3.33301      4.75910      8.41085         0.015016      0.196677     -0.237637
      3.58966      7.60761     11.29140        -0.780780      0.002480     -0.398231
      6.08380      7.63495      8.28694        -3.203284      3.235481     -2.013558
      6.21774      6.12355     11.00784        -0.539200      0.036823     -0.694140
      6.25188      4.96586      9.67163         0.039121     -0.667841      0.415056
      4.75165      4.16632      9.27223        -0.003774     -0.167420     -0.216867
      6.86852      4.76535     11.98810         0.252364      0.630778     -0.244318
      4.96619      6.30165      9.69555        -0.543167     -0.552726      0.641813
      6.68393      7.93354     11.63351        -0.838828      0.066020      0.288742
      9.14236      6.99844      8.73965         1.873375     -1.783741      0.794046
      4.40149      7.85366      9.41312        -1.341601      0.383277      0.073858
      7.69744      6.51838      9.69011         1.048924     -0.825784      1.776208
      5.73900      8.64474      6.08415         0.398471      0.076402      0.314077
      7.63793      6.92409      5.54497        -0.826506     -0.920813      0.297748
      7.88715      4.22197      9.49546         0.237770     -0.217442     -0.199294
      8.18440      8.19604      7.60082         2.002802      1.994219     -0.873759
     10.52840      7.44153      7.17874         1.472091     -0.423683     -0.190056
     11.68288      6.21434      7.78887         0.112277      0.204502      0.909526
      9.48938      4.95809      9.70433         0.409370     -0.557177     -0.118862
      9.79357      6.24865     10.80849         0.000672      0.029210      0.839866
     10.92569      5.82527      9.45012         0.160056      0.031256     -0.510933
     11.58884      6.59135     10.75644        -0.208470      0.093327      1.189512
      9.48246      4.23377      7.96147         0.011191      0.208184     -0.580972
      7.81767      6.42661     11.50431         0.415736     -0.187726      0.762153
      9.25718      4.68624     11.52910        -0.496714      0.021479      0.505509
      6.68665      7.81624      6.72429        -2.186352      0.047441     -3.146469
     12.41880      4.76545      8.37396         0.360184     -0.083064      0.472898
      6.17522      8.40039      8.05101        -2.613766     -0.048786      0.540254
      7.90191      7.94867      5.88945        -1.551784     -1.291588     -2.737510
      9.48249      9.47054      7.10787         1.633134      1.870290     -0.440746
      8.27201      8.30413      9.24970         3.991145      1.803643      3.052467
      8.18806      7.40071      8.07004         0.051469     -2.054922      0.178265
      4.08293     11.05365      9.30109        -0.484171     -0.227979     -0.391261
      4.99453      9.44135      9.52824        -0.884073      0.002435      0.368415
      4.64836      9.27250     11.57564         0.284001     -0.709379     -0.018469
      5.88630     10.94116      9.69684         0.594288      0.154017     -0.612812
      6.29958     10.01080     10.96968         0.354173     -0.260741     -0.241296
      7.24544      7.05663      9.21411        -0.849674     -1.098374      3.040189
      8.69151      7.06146      9.46543         0.632419     -1.170387      2.038270
      9.36609      7.81892      7.72963         0.961633     -1.449206      0.146776
      7.59850     11.60674      9.78460         1.075416     -0.623515     -0.004197
      7.07139      9.02892      7.34059        -2.044230      3.747611     -0.868161
      7.44271      5.92367      7.25272         0.289195     -3.393594     -1.542538
      9.34930      6.42589      4.85300        -0.051759      0.086994      0.454511
      9.05266      8.59774      9.20242         3.026035      1.403957      1.195421
      6.84966      6.33986      7.48221        -1.639967     -1.124637     -1.387555
      8.76194      6.61357      7.24321         4.551685     -2.017123      0.441031
      7.94096     11.28816      7.80010         0.398120     -0.181514     -0.370547
     11.54854      7.95028      9.36214        -0.038267     -0.540055      0.205495
      7.26968      8.36296      7.42642        -1.537904     -0.767933     -1.014367
      7.71859      8.52242     10.20807         1.994795      0.931000      4.692046
      8.07822      9.59859     11.34834        -0.075759     -0.275647      0.671986
     11.48547      9.30318      7.92671        -0.096760      0.414293     -0.094444
      9.55245      8.08982     11.33078        -0.219850      0.017442      0.568397
     10.27318      6.77268      6.98871         0.178576     -1.350446      0.006680
      8.28844      9.92272      9.00813         1.877532      2.387966      1.617915
      9.52131     10.58754      9.78080        -0.046012      0.950388     -0.216764
      9.11118     10.86508     11.52641         0.429855      0.067445      0.195306
     10.80757      9.58735      9.65047         0.209831     -0.078384      0.271319
     11.61637     11.10649      9.26539         0.161670      0.157432     -0.454757
     10.93546      9.22084     11.58827        -0.165049      0.163187     -0.068056
     12.38653      7.91311     11.27912         0.228315      0.403653      0.354255
      1.58257     11.76717      9.47229         0.201815      0.065082      0.241308
      7.91919     12.56283      8.14855        -0.240167     -0.162444      0.126012
      8.00461     12.41492     11.40621        -0.209158     -0.069704      0.033123
      4.71521     12.42339      8.35518        -0.330251      0.315879      0.198465
      8.75681      0.02931     11.07373        -0.007423     -0.169541      0.136313
     10.99876     13.22572      9.40216        -0.208130     -0.043976      0.217076
      3.23090      1.63042     11.89427        -0.276056     -0.204494      0.097326
     11.03445     15.79956     15.02815         0.511973      0.032881     -0.187307
      4.74567      7.40311     12.44680         0.198781     -0.040299     -0.111147
      8.13836      7.96919     12.50302         0.217884      0.097427      0.346408
     10.99379      7.42909     12.45526         0.393480      0.013638      0.234220
     15.78280      4.74019     15.04032         0.162652      0.002284      0.011856
      3.19299     11.06881     13.40233        -0.197291     -0.350144      0.009971
      7.24050     11.09605     12.47313         0.480275     -0.439788     -0.156115
     13.39037      9.50622     14.21897         0.173314     -0.133816     -0.448400
      6.29690     14.23012     13.45289         0.098061     -0.070938     -0.097974
     14.99478     14.17658     15.79386         0.106358      0.312873      0.276823
 -----------------------------------------------------------------------------------
    total drift:                                0.027866      0.038866     -0.004205


--------------------------------------------------------------------------------------------------------



  FREE ENERGIE OF THE ION-ELECTRON SYSTEM (eV)
  ---------------------------------------------------
  free  energy   TOTEN  =     -3310.05614492 eV

  energy  without entropy=    -3310.07033702  energy(sigma->0) =    -3310.06087562
 
 d Force = 0.1381514E+02[ 0.833E+01, 0.193E+02]  d Energy = 0.1297190E+02 0.843E+00
 d Force = 0.1297514E+03[ 0.107E+03, 0.152E+03]  d Ewald  = 0.1286216E+03 0.113E+01


--------------------------------------------------------------------------------------------------------


    POTLOK:  cpu time    0.1728: real time    0.1731


--------------------------------------------------------------------------------------------------------


           RANDOM_SEED =         416718102             4692                0
   IONSTEP:  cpu time    0.0008: real time    0.0035

  ENERGY OF THE ELECTRON-ION-THERMOSTAT SYSTEM (eV)
  ---------------------------------------------------
% ion-electron   TOTEN  =     -3310.056145  see above
  kinetic energy EKIN   =        38.157080
  kin. lattice  EKIN_LAT=         0.000000  (temperature  756.91 K)
  nose potential ES     =         0.450056
  nose kinetic   EPS    =         0.500080
  ---------------------------------------------------
  total energy   ETOTAL =     -3270.948929 eV

  maximum distance moved by ions :      0.12E-01

    WAVPRE:  cpu time    1.5786: real time    1.5928
    FEWALD:  cpu time    0.0256: real time    0.0256

 real space projection operators:
  total allocation   :      97800.47 KBytes
  max/ min on nodes  :      12678.20      11772.28

    ORTHCH:  cpu time    1.1626: real time    1.1710
 Prediction of Wavefunctions ALPHA= 1.637 BETA=-0.792
     LOOP+:  cpu time  108.2998: real time  110.6006


