8
Lattice="5.4307000 0.0000000 0.0000000 0.0000000 5.4307000 0.0000000 0.0000000 0.0000000 5.4307000" Energy=-1383.545464 Properties=species:S:1:pos:R:3:force:R:3
Si	    0.003742	   -0.006968	    0.022315	0.00032 0.06467 0.28030
Si	    0.010704	    2.701583	    2.722660	-0.19508 -0.00139 0.34218
Si	    2.702425	    0.032508	    2.703223	-0.39577 -0.43865 -0.51158
Si	    2.734548	    2.712184	   -0.004193	0.64449 0.18911 -0.11738
Si	    4.054132	    1.319964	    4.069039	-0.38035 0.44504 0.02809
Si	    1.355063	    1.399263	    1.372349	0.06353 -0.47927 0.01341
Si	    1.366245	    4.079384	    4.079721	0.22743 0.12289 -0.03423
Si	    4.083316	    4.071694	    1.349638	0.03542 0.09759 -0.00080
Lattice="5.4307000 0.0000000 0.0000000 0.0000000 5.4307000 0.0000000 0.0000000 0.0000000 5.4307000" Energy=-1383.539442 Properties=species:S:1:pos:R:3:force:R:3
Si	    0.013169	   -0.016037	    0.049512	0.57651 -0.28583 -0.48093
Si	    0.023129	    2.691314	    2.739875	-0.29798 0.16647 1.08999
Si	    2.691993	    0.062241	    2.690934	-1.02121 -0.86545 -0.79763
Si	    2.754815	    2.711467	   -0.014142	-0.47621 0.06633 -0.34115
Si	    4.033082	    1.286484	    4.059676	0.62422 0.16114 0.01657
Si	    1.343778	    1.434965	    1.389570	-0.48106 0.01224 -0.12696
Si	    1.379620	    4.089703	    4.086412	0.52518 0.77703 0.33443
Si	    4.091723	    4.070858	    1.342176	0.55055 -0.03193 0.30568
Lattice="5.4307000 0.0000000 0.0000000 0.0000000 5.4307000 0.0000000 0.0000000 0.0000000 5.4307000" Energy=-1383.526756 Properties=species:S:1:pos:R:3:force:R:3
Si	    0.029418	   -0.020343	    0.071414	0.87098 -0.08596 -0.10813
Si	    0.039883	    2.683694	    2.770678	-1.02318 0.80497 1.25327
Si	    2.680594	    0.087358	    2.670172	-0.79563 -1.20609 -0.83607
Si	    2.765188	    2.723697	   -0.030330	-0.09955 0.30336 0.04581
Si	    4.010892	    1.248246	    4.051959	1.44572 0.53854 -0.03475
Si	    1.335588	    1.471182	    1.405188	-0.32506 -0.60510 -1.13686
Si	    1.392176	    4.105957	    4.094987	0.05312 0.32234 0.45411
Si	    4.106266	    4.069256	    1.338972	-0.12640 -0.07206 0.36262
Lattice="5.4307000 0.0000000 0.0000000 0.0000000 5.4307000 0.0000000 0.0000000 0.0000000 5.4307000" Energy=-1383.479332 Properties=species:S:1:pos:R:3:force:R:3
Si	    0.048518	   -0.021804	    0.098752	0.51699 -0.03650 -0.61829
Si	    0.054763	    2.678780	    2.812815	-1.38297 0.83532 0.88327
Si	    2.653983	    0.111253	    2.645636	-0.12212 -2.06980 -0.28109
Si	    2.768446	    2.739006	   -0.042387	0.17141 0.42889 0.53498
Si	    3.998016	    1.221359	    4.047533	2.23079 1.19359 0.16422
Si	    1.324933	    1.495691	    1.415974	-0.22230 -0.43846 -1.35878
Si	    1.409223	    4.129933	    4.107950	-0.47615 0.34805 -0.11798
Si	    4.121733	    4.068458	    1.343050	-0.71565 -0.26109 0.79365
Lattice="5.4307000 0.0000000 0.0000000 0.0000000 5.4307000 0.0000000 0.0000000 0.0000000 5.4307000" Energy=-1383.382282 Properties=species:S:1:pos:R:3:force:R:3
Si	    0.059613	   -0.023765	    0.127545	-0.36272 0.12414 -1.70190
Si	    0.061046	    2.683738	    2.863396	-1.81341 0.48017 -0.11054
Si	    2.624581	    0.123016	    2.628948	1.87516 -2.22455 0.65063
Si	    2.775658	    2.756710	   -0.054236	0.24278 -0.11997 0.31846
Si	    4.009600	    1.205501	    4.043281	1.61615 1.38436 0.43309
Si	    1.320839	    1.511326	    1.407567	-0.25582 0.40342 -1.03007
Si	    1.422887	    4.153747	    4.122488	-0.44675 0.35199 -0.07641
Si	    4.134463	    4.067491	    1.354161	-0.85539 -0.39956 1.51674
Lattice="5.4307000 0.0000000 0.0000000 0.0000000 5.4307000 0.0000000 0.0000000 0.0000000 5.4307000" Energy=-1383.438383 Properties=species:S:1:pos:R:3:force:R:3
Si	    0.069784	   -0.021554	    0.141030	-0.92013 -0.16736 -1.80285
Si	    0.051983	    2.686470	    2.911083	-1.31962 0.64222 0.38280
Si	    2.620324	    0.116358	    2.612579	2.68938 -2.16191 0.65492
Si	    2.784841	    2.772166	   -0.068992	0.36643 0.03772 0.21668
Si	    4.038415	    1.203503	    4.046692	0.61420 1.10727 0.10530
Si	    1.311872	    1.530822	    1.393947	0.01012 1.06957 -0.93843
Si	    1.433460	    4.173650	    4.135038	-0.52973 0.02365 -0.34138
Si	    4.143315	    4.069685	    1.374385	-0.91065 -0.55115 1.72295
Lattice="5.4307000 0.0000000 0.0000000 0.0000000 5.4307000 0.0000000 0.0000000 0.0000000 5.4307000" Energy=-1383.598691 Properties=species:S:1:pos:R:3:force:R:3
Si	    0.073961	   -0.019165	    0.149181	-1.24442 -0.11497 -0.38779
Si	    0.024661	    2.705048	    2.958097	0.07945 0.69481 -0.68906
Si	    2.635388	    0.091784	    2.602858	1.67229 -1.11739 -0.12076
Si	    2.791125	    2.787910	   -0.081417	0.05945 -0.24312 0.47185
Si	    4.072743	    1.209384	    4.050107	0.05742 0.99047 0.32957
Si	    1.306675	    1.561647	    1.376172	0.68626 0.87448 0.11359
Si	    1.437121	    4.194238	    4.135994	-0.71170 -0.27922 -0.24259
Si	    4.141294	    4.070179	    1.408300	-0.59874 -0.80505 0.52519
Lattice="5.4307000 0.0000000 0.0000000 0.0000000 5.4307000 0.0000000 0.0000000 0.0000000 5.4307000" Energy=-1383.650799 Properties=species:S:1:pos:R:3:force:R:3
Si	    0.064218	   -0.020783	    0.154520	-0.70436 0.20056 -0.18979
Si	    0.013142	    2.722991	    2.983225	0.71769 1.16616 -0.75453
Si	    2.656438	    0.069334	    2.586708	0.21458 0.24740 0.14692
Si	    2.801742	    2.797343	   -0.087184	-0.16613 -0.60123 0.86336
Si	    4.106277	    1.222532	    4.053697	-0.26317 0.23362 0.33789
Si	    1.311384	    1.587931	    1.362090	0.75804 0.44490 0.12144
Si	    1.437251	    4.209971	    4.137395	-0.62159 -0.65165 -0.03275
Si	    4.127875	    4.067095	    1.447928	0.06494 -1.03975 -0.49254
Lattice="5.4307000 0.0000000 0.0000000 0.0000000 5.4307000 0.0000000 0.0000000 0.0000000 5.4307000" Energy=-1383.558349 Properties=species:S:1:pos:R:3:force:R:3
Si	    0.049767	   -0.010823	    0.152738	-0.07693 0.44232 -0.21970
Si	    0.003204	    2.749113	    3.002819	0.83244 0.89373 -1.18394
Si	    2.672094	    0.036109	    2.577671	-0.24455 1.52283 0.94284
Si	    2.806521	    2.800797	   -0.081298	0.09446 -0.77107 0.79731
Si	    4.137406	    1.240100	    4.059742	-1.37786 0.18247 0.56763
Si	    1.329023	    1.621710	    1.350832	0.27169 -0.69751 -0.03891
Si	    1.430821	    4.220946	    4.136999	-0.23731 -0.45420 0.43084
Si	    4.119990	    4.063809	    1.482945	0.73807 -1.11857 -1.29606
Lattice="5.4307000 0.0000000 0.0000000 0.0000000 5.4307000 0.0000000 0.0000000 0.0000000 5.4307000" Energy=-1383.430780 Properties=species:S:1:pos:R:3:force:R:3
Si	    0.040252	    0.002732	    0.145179	-0.06195 0.68332 -0.54029
Si	   -0.006408	    2.784483	    3.007983	0.76583 0.16606 -1.13112
Si	    2.693443	    0.016069	    2.579957	-0.78201 2.09222 1.30620
Si	    2.815829	    2.793639	   -0.066374	-0.37647 -0.25438 -0.04086
Si	    4.153785	    1.252949	    4.070418	-2.00359 0.25982 0.61083
Si	    1.351354	    1.645958	    1.347335	0.14349 -1.17032 0.12030
Si	    1.413019	    4.229967	    4.136705	1.03166 -0.46929 0.55002
Si	    4.107532	    4.047197	    1.510153	1.28305 -1.30744 -0.87508
Lattice="5.4307000 0.0000000 0.0000000 0.0000000 5.4307000 0.0000000 0.0000000 0.0000000 5.4307000" Energy=-1383.433467 Properties=species:S:1:pos:R:3:force:R:3
Si	    0.032823	    0.025378	    0.137196	0.26308 1.02188 -0.61075
Si	   -0.007690	    2.814889	    3.006604	0.55568 -1.28099 -1.17667
Si	    2.706759	    0.011546	    2.593306	-0.60027 2.05884 1.00608
Si	    2.816850	    2.796876	   -0.057191	-0.85608 0.04275 -0.58037
Si	    4.145346	    1.275183	    4.087845	-1.50080 -0.16311 1.05801
Si	    1.364545	    1.662636	    1.349084	-0.19856 -1.56998 0.14075
Si	    1.407442	    4.238259	    4.129667	0.86548 0.32348 0.58390
Si	    4.111664	    4.017931	    1.538952	1.47147 -0.43287 -0.42095
Lattice="5.4307000 0.0000000 0.0000000 0.0000000 5.4307000 0.0000000 0.0000000 0.0000000 5.4307000" Energy=-1383.479838 Properties=species:S:1:pos:R:3:force:R:3
Si	    0.029717	    0.054334	    0.124515	0.39211 -0.01422 -0.52364
Si	   -0.010058	    2.834815	    2.993771	0.33078 -2.18523 -0.09442
Si	    2.712906	    0.019751	    2.610695	-0.44305 2.40370 1.08201
Si	    2.805625	    2.793644	   -0.047062	-0.61087 0.87117 -0.85083
Si	    4.120788	    1.300533	    4.104409	-0.89495 -0.79696 0.45224
Si	    1.368574	    1.670054	    1.355302	-0.23741 -2.05439 0.49599
Si	    1.407252	    4.247155	    4.131106	0.63449 0.87601 0.27249
Si	    4.121326	    3.994611	    1.556694	0.82892 0.89991 -0.83384
Lattice="5.4307000 0.0000000 0.0000000 0.0000000 5.4307000 0.0000000 0.0000000 0.0000000 5.4307000" Energy=-1383.600638 Properties=species:S:1:pos:R:3:force:R:3
Si	    0.029510	    0.079245	    0.102564	0.55037 -0.73017 0.42925
Si	   -0.017693	    2.824181	    2.973797	0.23254 -2.03157 0.24449
Si	    2.715078	    0.053807	    2.635030	-0.46734 1.14315 0.82009
Si	    2.794041	    2.789810	   -0.048512	-0.21746 1.40718 -0.23008
Si	    4.098147	    1.325205	    4.123319	-0.10604 -0.77547 -0.29807
Si	    1.373272	    1.650319	    1.363915	0.04820 -1.57544 0.48686
Si	    1.410054	    4.261655	    4.151960	0.40105 0.84602 -0.68293
Si	    4.134017	    3.986422	    1.565779	-0.44133 1.71630 -0.76962
Lattice="5.4307000 0.0000000 0.0000000 0.0000000 5.4307000 0.0000000 0.0000000 0.0000000 5.4307000" Energy=-1383.694668 Properties=species:S:1:pos:R:3:force:R:3
Si	    0.033480	    0.093631	    0.076372	0.41704 -0.77579 1.50524
Si	   -0.027441	    2.792526	    2.952878	0.31362 -0.72239 0.54844
Si	    2.714720	    0.091936	    2.666838	-0.47369 0.57775 0.04746
Si	    2.779166	    2.806852	   -0.056626	0.20946 1.16097 0.08770
Si	    4.082317	    1.344484	    4.132187	-0.33490 -1.17487 0.14701
Si	    1.372892	    1.614145	    1.376715	0.19109 -1.24744 0.66827
Si	    1.400713	    4.285235	    4.164147	0.56744 0.42584 -1.90862
Si	    4.135728	    3.993243	    1.570922	-0.89007 1.75593 -1.09551
Lattice="5.4307000 0.0000000 0.0000000 0.0000000 5.4307000 0.0000000 0.0000000 0.0000000 5.4307000" Energy=-1383.672683 Properties=species:S:1:pos:R:3:force:R:3
Si	    0.032850	    0.101038	    0.066597	0.15542 -0.80377 1.63370
Si	   -0.028386	    2.750612	    2.930786	0.79174 1.08075 1.00037
Si	    2.708198	    0.133362	    2.694882	-0.20109 -1.22477 -0.65417
Si	    2.763928	    2.826370	   -0.053080	-0.00812 0.75834 0.11397
Si	    4.069951	    1.363079	    4.131427	-0.38804 -0.28006 0.44158
Si	    1.377399	    1.565600	    1.391758	0.09476 1.25377 -0.31913
Si	    1.399073	    4.315522	    4.152400	0.46346 -1.60703 -1.33532
Si	    4.130395	    4.010040	    1.574572	-0.90813 0.82278 -0.88099
Lattice="5.4307000 0.0000000 0.0000000 0.0000000 5.4307000 0.0000000 0.0000000 0.0000000 5.4307000" Energy=-1383.589347 Properties=species:S:1:pos:R:3:force:R:3
Si	    0.036342	    0.093348	    0.069746	-0.12112 -0.40884 1.37817
Si	   -0.015461	    2.720270	    2.915455	0.80618 1.21100 0.52828
Si	    2.713639	    0.159212	    2.720759	0.04699 -0.13275 -0.45435
Si	    2.753821	    2.850357	   -0.046900	0.10999 -0.61321 0.07920
Si	    4.057352	    1.368835	    4.139225	-0.80234 0.43183 0.82789
Si	    1.385649	    1.536046	    1.399410	0.18299 1.07669 -1.02883
Si	    1.403168	    4.330044	    4.135815	0.11303 -2.16690 -0.86893
Si	    4.113055	    4.026202	    1.573453	-0.33573 0.60219 -0.46142
Lattice="5.4307000 0.0000000 0.0000000 0.0000000 5.4307000 0.0000000 0.0000000 0.0000000 5.4307000" Energy=-1383.650592 Properties=species:S:1:pos:R:3:force:R:3
Si	    0.043489	    0.083416	    0.089954	-0.31135 -0.44210 0.62657
Si	    0.003878	    2.703707	    2.897273	0.80144 0.44542 0.10501
Si	    2.717207	    0.182933	    2.736378	0.20205 0.44018 -0.29987
Si	    2.751057	    2.867518	   -0.034805	-0.29579 -0.07998 -0.11288
Si	    4.036129	    1.379322	    4.154067	0.28297 0.65083 0.85956
Si	    1.395098	    1.523518	    1.394919	-0.37889 0.68305 -0.92314
Si	    1.415322	    4.321947	    4.114738	-0.65988 -1.75094 -0.07523
Si	    4.099380	    4.046436	    1.576967	0.35945 0.05354 -0.18001
Lattice="5.4307000 0.0000000 0.0000000 0.0000000 5.4307000 0.0000000 0.0000000 0.0000000 5.4307000" Energy=-1383.680538 Properties=species:S:1:pos:R:3:force:R:3
Si	    0.043587	    0.068389	    0.125487	-0.47943 -0.72817 -1.06243
Si	    0.029630	    2.696527	    2.883273	0.57694 -0.44862 0.76473
Si	    2.719195	    0.211265	    2.751051	-0.07695 0.05267 -0.59216
Si	    2.741580	    2.887014	   -0.022689	-0.01641 0.08438 0.05852
Si	    4.009529	    1.391193	    4.174204	1.67735 0.34971 0.35829
Si	    1.404189	    1.525489	    1.380484	-0.92549 0.44071 0.13028
Si	    1.420226	    4.295526	    4.091777	-1.13372 -0.01394 0.64182
Si	    4.079656	    4.065031	    1.585357	0.37771 0.26326 -0.29904
Lattice="5.4307000 0.0000000 0.0000000 0.0000000 5.4307000 0.0000000 0.0000000 0.0000000 5.4307000" Energy=-1383.636215 Properties=species:S:1:pos:R:3:force:R:3
Si	    0.034154	    0.044966	    0.156475	-0.48974 -0.51691 -0.34412
Si	    0.054888	    2.690526	    2.860344	-0.14034 -0.61823 -0.27056
Si	    2.718201	    0.241161	    2.759534	-0.09697 -1.44293 -0.09029
Si	    2.738219	    2.903361	   -0.016010	-0.00370 0.66931 0.77115
Si	    4.008345	    1.406242	    4.203541	1.85111 -0.09386 -0.63663
Si	    1.397341	    1.528563	    1.371388	-0.39020 0.31126 0.26569
Si	    1.410114	    4.272348	    4.070168	-1.02713 1.09721 0.25621
Si	    4.061126	    4.081758	    1.590310	0.29697 0.59414 0.04854
Lattice="5.4307000 0.0000000 0.0000000 0.0000000 5.4307000 0.0000000 0.0000000 0.0000000 5.4307000" Energy=-1383.636289 Properties=species:S:1:pos:R:3:force:R:3
Si	    0.013224	    0.019724	    0.168911	0.17498 0.30208 0.63398
Si	    0.078273	    2.679361	    2.840218	-1.07385 -0.67533 -0.53256
Si	    2.714747	    0.251637	    2.764693	0.04869 -1.61734 -0.33687
Si	    2.737008	    2.922689	   -0.003199	0.23787 0.81787 1.01459
Si	    4.018539	    1.417923	    4.237993	1.31481 -0.54805 -0.39511
Si	    1.399138	    1.538897	    1.367744	-0.26693 0.47925 -0.31853
Si	    1.398389	    4.256854	    4.063956	-0.61976 0.69175 -0.25480
Si	    4.050281	    4.099538	    1.588865	0.18419 0.54976 0.18931
Lattice="5.4307000 0.0000000 0.0000000 0.0000000 5.4307000 0.0000000 0.0000000 0.0000000 5.4307000" Energy=-1383.701820 Properties=species:S:1:pos:R:3:force:R:3
Si	   -0.015939	   -0.006604	    0.183340	-0.28118 -0.13816 0.72131
Si	    0.092827	    2.660250	    2.812445	-2.09276 0.41140 0.65978
Si	    2.709756	    0.245120	    2.764949	-0.04457 -1.04924 -0.57529
Si	    2.742140	    2.941859	    0.014581	0.32922 0.21654 0.85744
Si	    4.035054	    1.418727	    4.256860	0.84484 -0.63736 0.38524
Si	    1.395006	    1.550264	    1.362894	0.41513 0.73539 -1.21610
Si	    1.378323	    4.256317	    4.060100	0.56836 0.62321 -0.70534
Si	    4.043248	    4.117090	    1.593970	0.26097 -0.16178 -0.12704
Lattice="5.4307000 0.0000000 0.0000000 0.0000000 5.4307000 0.0000000 0.0000000 0.0000000 5.4307000" Energy=-1383.718925 Properties=species:S:1:pos:R:3:force:R:3
Si	   -0.044222	   -0.026018	    0.202994	0.83258 -0.03882 0.49402
Si	    0.086077	    2.645408	    2.784667	-1.64135 1.62531 1.98448
Si	    2.703994	    0.229431	    2.755885	-0.06648 0.10046 0.04219
Si	    2.741852	    2.957994	    0.044195	0.73050 -0.28597 -0.54040
Si	    4.058683	    1.425700	    4.272994	0.02835 -1.09576 0.26498
Si	    1.396901	    1.573230	    1.354221	0.50616 -0.00036 -1.53760
Si	    1.358473	    4.258788	    4.057656	-0.00943 0.54729 -0.84669
Si	    4.048457	    4.134452	    1.593226	-0.38033 -0.85216 0.13901
Lattice="5.4307000 0.0000000 0.0000000 0.0000000 5.4307000 0.0000000 0.0000000 0.0000000 5.4307000" Energy=-1383.700648 Properties=species:S:1:pos:R:3:force:R:3
Si	   -0.067091	   -0.047443	    0.226368	1.15693 0.58805 -0.70698
Si	    0.072652	    2.647347	    2.763042	-0.88240 1.46376 2.12829
Si	    2.687615	    0.224212	    2.752811	-0.37221 0.93864 0.59060
Si	    2.746495	    2.968057	    0.071528	1.05808 -0.04131 -1.35149
Si	    4.077038	    1.422724	    4.287011	0.45304 -1.00890 0.36855
Si	    1.401240	    1.590983	    1.329012	0.36741 -0.94923 -1.70171
Si	    1.335952	    4.257658	    4.053040	-0.77884 0.20161 -0.48463
Si	    4.047175	    4.146861	    1.587584	-1.00200 -1.19262 1.15737
Lattice="5.4307000 0.0000000 0.0000000 0.0000000 5.4307000 0.0000000 0.0000000 0.0000000 5.4307000" Energy=-1383.725319 Properties=species:S:1:pos:R:3:force:R:3
Si	   -0.076111	   -0.063588	    0.245381	1.28185 1.17331 -1.49828
Si	    0.050799	    2.665241	    2.751725	-0.65215 0.65573 2.03051
Si	    2.662015	    0.220541	    2.754940	0.26264 1.65869 0.99158
Si	    2.763173	    2.976659	    0.080065	0.37820 -0.15642 -1.72504
Si	    4.101232	    1.416413	    4.308983	0.43662 -0.48601 -0.74869
Si	    1.406915	    1.607493	    1.284187	0.08282 -1.85506 0.50396
Si	    1.310564	    4.254253	    4.036373	-0.49032 -0.15105 -0.06982
Si	    4.040528	    4.147284	    1.606998	-1.29965 -0.83919 0.51579
Lattice="5.4307000 0.0000000 0.0000000 0.0000000 5.4307000 0.0000000 0.0000000 0.0000000 5.4307000" Energy=-1383.712661 Properties=species:S:1:pos:R:3:force:R:3
Si	   -0.075411	   -0.072098	    0.248248	1.37316 1.20070 -1.29594
Si	    0.026714	    2.678975	    2.753810	0.26593 0.24935 1.07483
Si	    2.638028	    0.232276	    2.769331	0.53886 0.94312 0.88002
Si	    2.781007	    2.985153	    0.072755	0.14282 -0.54341 -1.72876
Si	    4.134137	    1.396374	    4.321805	-1.23470 0.37385 -1.55477
Si	    1.417282	    1.602361	    1.252173	-0.60022 -1.37130 2.27320
Si	    1.279467	    4.252276	    4.016258	0.66772 -0.40181 0.50496
Si	    4.020027	    4.145248	    1.622009	-1.15357 -0.45051 -0.15355
Lattice="5.4307000 0.0000000 0.0000000 0.0000000 5.4307000 0.0000000 0.0000000 0.0000000 5.4307000" Energy=-1383.654865 Properties=species:S:1:pos:R:3:force:R:3
Si	   -0.055969	   -0.070371	    0.240428	0.40424 0.64167 -0.46887
Si	    0.013202	    2.694398	    2.769081	0.39632 -0.68309 0.07683
Si	    2.618211	    0.254178	    2.782354	1.12271 0.00722 0.16582
Si	    2.797430	    2.986499	    0.047752	-0.91015 -0.56669 -1.33382
Si	    4.156365	    1.373299	    4.329490	-2.32611 0.72515 -2.06024
Si	    1.424114	    1.587980	    1.246720	-1.07946 -0.17789 2.51868
Si	    1.261535	    4.261275	    3.999808	1.74915 0.24880 1.69788
Si	    3.977510	    4.144889	    1.628623	0.64331 -0.19517 -0.59627
Lattice="5.4307000 0.0000000 0.0000000 0.0000000 5.4307000 0.0000000 0.0000000 0.0000000 5.4307000" Energy=-1383.571048 Properties=species:S:1:pos:R:3:force:R:3
Si	   -0.038303	   -0.062046	    0.222914	-0.25072 0.02205 0.57185
Si	    0.006463	    2.710006	    2.776386	-0.11283 -0.51035 -0.27608
Si	    2.605226	    0.270346	    2.778004	1.18551 -0.75185 0.20553
Si	    2.811365	    2.976833	    0.008472	-1.98117 -0.53724 -1.22579
Si	    4.157049	    1.361639	    4.327041	-2.08534 -0.01983 -2.34884
Si	    1.420829	    1.572008	    1.260688	-0.84996 0.91812 1.34156
Si	    1.248442	    4.282378	    3.990484	2.35452 0.53193 2.33335
Si	    3.944784	    4.136591	    1.620456	1.73998 0.34717 -0.60157
Lattice="5.4307000 0.0000000 0.0000000 0.0000000 5.4307000 0.0000000 0.0000000 0.0000000 5.4307000" Energy=-1383.650150 Properties=species:S:1:pos:R:3:force:R:3
Si	   -0.017194	   -0.058396	    0.204917	-1.08525 0.24711 1.06478
Si	    0.005067	    2.716621	    2.788040	-0.27805 -0.31994 -0.24364
Si	    2.603727	    0.279648	    2.782088	1.00171 -0.66782 -0.05075
Si	    2.806781	    2.967454	   -0.032774	-2.23342 -0.47284 -1.74565
Si	    4.136113	    1.355416	    4.293973	-0.81893 0.02339 -0.49581
Si	    1.414116	    1.564883	    1.286381	-0.67848 1.12680 -0.48406
Si	    1.257956	    4.306132	    3.995138	1.93210 -1.06126 1.76703
Si	    3.927998	    4.125773	    1.610181	2.16032 1.12456 0.18810
Lattice="5.4307000 0.0000000 0.0000000 0.0000000 5.4307000 0.0000000 0.0000000 0.0000000 5.4307000" Energy=-1383.671855 Properties=species:S:1:pos:R:3:force:R:3
Si	   -0.002971	   -0.042555	    0.201854	-0.96514 0.00304 1.02913
Si	    0.002504	    2.720824	    2.785151	-0.68435 0.17031 -0.15443
Si	    2.614057	    0.289136	    2.786601	0.48437 -1.45776 -0.79951
Si	    2.785987	    2.944764	   -0.090106	-1.41783 0.57852 1.51638
Si	    4.102351	    1.351924	    4.256317	0.72531 -0.18574 -0.53613
Si	    1.391019	    1.563471	    1.303487	-0.08475 1.56809 -1.10741
Si	    1.280445	    4.313958	    4.016481	0.15109 -1.59767 -0.05041
Si	    3.927287	    4.126517	    1.598744	1.79130 0.92122 0.10239
Lattice="5.4307000 0.0000000 0.0000000 0.0000000 5.4307000 0.0000000 0.0000000 0.0000000 5.4307000" Energy=-1383.590092 Properties=species:S:1:pos:R:3:force:R:3
Si	    0.004241	   -0.028164	    0.209516	-0.94226 -0.51225 1.09481
Si	   -0.007657	    2.723724	    2.781208	-0.95383 0.48718 0.18813
Si	    2.618553	    0.284417	    2.780861	0.51362 -1.13503 -0.71215
Si	    2.754820	    2.939111	   -0.131912	0.03427 1.09377 2.75084
Si	    4.081562	    1.350360	    4.219230	0.79982 -0.35783 -1.71656
Si	    1.367488	    1.567631	    1.310547	0.05212 1.45310 -1.05936
Si	    1.306637	    4.310433	    4.033223	-0.99070 -1.24060 -0.67787
Si	    3.942406	    4.133235	    1.591363	1.48696 0.21165 0.13217
Lattice="5.4307000 0.0000000 0.0000000 0.0000000 5.4307000 0.0000000 0.0000000 0.0000000 5.4307000" Energy=-1383.637729 Properties=species:S:1:pos:R:3:force:R:3
Si	    0.002096	   -0.016580	    0.232467	-0.72743 -0.55328 -0.13260
Si	   -0.022787	    2.737171	    2.779058	-0.85768 1.03186 0.32986
Si	    2.630327	    0.267929	    2.768794	0.31211 -0.69407 -0.99425
Si	    2.729253	    2.946236	   -0.152983	0.73781 1.23380 1.97070
Si	    4.072933	    1.344924	    4.164559	0.71004 -0.71311 0.57612
Si	    1.345858	    1.584363	    1.313165	-0.11300 0.93841 -0.68668
Si	    1.325080	    4.311465	    4.048695	-1.18743 -0.80960 -1.25545
Si	    3.974132	    4.144390	    1.582799	1.12557 -0.43400 0.19229
Lattice="5.4307000 0.0000000 0.0000000 0.0000000 5.4307000 0.0000000 0.0000000 0.0000000 5.4307000" Energy=-1383.598702 Properties=species:S:1:pos:R:3:force:R:3
Si	   -0.009390	   -0.015092	    0.254993	-0.31405 0.01095 -1.31231
Si	   -0.053324	    2.761706	    2.778916	0.83920 0.37806 0.87793
Si	    2.644811	    0.249144	    2.757671	0.61574 -0.27548 -0.58849
Si	    2.713601	    2.963891	   -0.158891	0.68593 0.47463 1.51924
Si	    4.070304	    1.331249	    4.129857	0.78121 0.02174 1.16626
Si	    1.325922	    1.621156	    1.312997	0.08624 0.05338 -0.61351
Si	    1.326340	    4.312758	    4.051872	-0.92184 -0.57968 -1.17740
Si	    4.024105	    4.142945	    1.573187	-1.77243 -0.08360 0.12829
Lattice="5.4307000 0.0000000 0.0000000 0.0000000 5.4307000 0.0000000 0.0000000 0.0000000 5.4307000" Energy=-1383.446765 Properties=species:S:1:pos:R:3:force:R:3
Si	   -0.016602	   -0.024780	    0.263894	-0.27764 0.67271 -2.35999
Si	   -0.070963	    2.790353	    2.782425	0.96563 -0.28020 1.14505
Si	    2.669846	    0.220296	    2.734227	-0.02856 1.21476 -0.55754
Si	    2.707410	    2.974432	   -0.145608	0.72341 -0.12651 1.61111
Si	    4.074757	    1.320024	    4.103274	0.77238 0.59116 1.07188
Si	    1.312025	    1.665444	    1.299061	0.70452 -1.04785 0.03101
Si	    1.321099	    4.308755	    4.048446	-0.62250 -0.21953 -0.92247
Si	    4.060084	    4.150423	    1.563933	-2.23724 -0.80454 -0.01904
Lattice="5.4307000 0.0000000 0.0000000 0.0000000 5.4307000 0.0000000 0.0000000 0.0000000 5.4307000" Energy=-1383.320684 Properties=species:S:1:pos:R:3:force:R:3
Si	   -0.028506	   -0.021245	    0.255487	0.05138 0.62725 -2.68477
Si	   -0.080847	    2.814650	    2.793042	1.38906 -0.89342 0.76433
Si	    2.701811	    0.192388	    2.707025	-1.22827 1.22491 -1.12015
Si	    2.703364	    2.985245	   -0.124374	0.40440 -0.47731 1.72496
Si	    4.081720	    1.311563	    4.085972	0.69427 1.07670 1.41044
Si	    1.307957	    1.693167	    1.284181	0.58687 -0.74814 0.87213
Si	    1.306654	    4.307305	    4.044465	-0.50215 -0.00144 -0.75742
Si	    4.081774	    4.153388	    1.550351	-1.39555 -0.80855 -0.20953
Lattice="5.4307000 0.0000000 0.0000000 0.0000000 5.4307000 0.0000000 0.0000000 0.0000000 5.4307000" Energy=-1383.400784 Properties=species:S:1:pos:R:3:force:R:3
Si	   -0.029858	   -0.014104	    0.222800	0.09820 0.98169 -1.17063
Si	   -0.070659	    2.829509	    2.806483	0.77913 -1.79242 -0.10271
Si	    2.721438	    0.176373	    2.676738	-1.05455 0.73595 0.08437
Si	    2.700731	    2.993559	   -0.084898	0.36642 -0.64018 0.64489
Si	    4.092255	    1.319372	    4.080242	0.58703 0.67169 1.11357
Si	    1.316228	    1.718561	    1.287342	-0.18273 -0.42134 0.78610
Si	    1.291469	    4.292778	    4.035906	0.15673 1.01102 -0.71812
Si	    4.092299	    4.151124	    1.532668	-0.75022 -0.54640 -0.63746
Lattice="5.4307000 0.0000000 0.0000000 0.0000000 5.4307000 0.0000000 0.0000000 0.0000000 5.4307000" Energy=-1383.372945 Properties=species:S:1:pos:R:3:force:R:3
Si	   -0.034952	    0.001466	    0.172495	0.46532 1.57530 -0.33377
Si	   -0.058538	    2.826511	    2.824523	-0.05337 -1.73645 -1.05513
Si	    2.731164	    0.161699	    2.636621	-0.53429 0.60525 1.60876
Si	    2.706525	    2.999566	   -0.041062	0.68225 -0.82497 -0.57952
Si	    4.114211	    1.333025	    4.084484	-1.00203 -0.06529 1.14855
Si	    1.320991	    1.737732	    1.303889	-0.62881 -1.49563 0.72207
Si	    1.279739	    4.282188	    4.032702	1.15554 1.93019 -0.65870
Si	    4.099673	    4.146888	    1.512146	-0.08461 0.01160 -0.85226
Lattice="5.4307000 0.0000000 0.0000000 0.0000000 5.4307000 0.0000000 0.0000000 0.0000000 5.4307000" Energy=-1383.365430 Properties=species:S:1:pos:R:3:force:R:3
Si	   -0.040578	    0.025649	    0.115435	0.86061 2.11721 -0.56683
Si	   -0.047703	    2.813369	    2.828982	-0.80141 -0.70126 -0.89053
Si	    2.743291	    0.149437	    2.608485	-0.21846 -0.25196 3.27500
Si	    2.710821	    3.002243	   -0.002286	0.63542 -0.27237 -0.73139
Si	    4.119181	    1.340400	    4.097012	-1.59063 -0.48819 1.21261
Si	    1.325840	    1.746057	    1.333454	-0.67527 -2.17454 -0.40557
Si	    1.270583	    4.284773	    4.021102	1.59539 1.69154 -0.17451
Si	    4.110948	    4.146595	    1.489076	0.19435 0.07959 -1.71878
Lattice="5.4307000 0.0000000 0.0000000 0.0000000 5.4307000 0.0000000 0.0000000 0.0000000 5.4307000" Energy=-1383.582727 Properties=species:S:1:pos:R:3:force:R:3
Si	   -0.037434	    0.071273	    0.052347	0.46791 1.19812 1.32444
Si	   -0.041670	    2.793503	    2.826739	-0.92085 0.42527 -0.85758
Si	    2.755515	    0.135854	    2.614936	0.24687 -0.72649 1.94837
Si	    2.722703	    3.000141	    0.024867	0.16829 -0.29021 -0.48800
Si	    4.104708	    1.344853	    4.117568	-1.25468 0.16054 -0.06769
Si	    1.323147	    1.724731	    1.361178	-0.09448 -1.49954 -0.71333
Si	    1.288265	    4.303075	    4.009638	0.54676 0.28978 0.54387
Si	    4.120229	    4.147339	    1.457144	0.84018 0.44253 -1.69007
Lattice="5.4307000 0.0000000 0.0000000 0.0000000 5.4307000 0.0000000 0.0000000 0.0000000 5.4307000" Energy=-1383.612792 Properties=species:S:1:pos:R:3:force:R:3
Si	   -0.036809	    0.125221	   -0.003774	1.24917 -0.61527 1.12146
Si	   -0.041838	    2.778591	    2.815541	-0.59345 1.17832 -0.71315
Si	    2.775696	    0.113876	    2.631755	-0.50954 0.30046 0.23517
Si	    2.735378	    3.000951	    0.041382	0.41506 -0.07390 -1.25394
Si	    4.080275	    1.350897	    4.131595	-1.56066 1.08515 -0.47641
Si	    1.320486	    1.704843	    1.373212	0.23080 -1.38196 -0.06668
Si	    1.305421	    4.325487	    3.997299	-0.15930 -1.16739 1.13079
Si	    4.134332	    4.155990	    1.412427	0.92792 0.67460 0.02276
Lattice="5.4307000 0.0000000 0.0000000 0.0000000 5.4307000 0.0000000 0.0000000 0.0000000 5.4307000" Energy=-1383.593844 Properties=species:S:1:pos:R:3:force:R:3
Si	   -0.025465	    0.181934	   -0.045596	1.15089 0.51540 1.65884
Si	   -0.046465	    2.764612	    2.797555	0.31328 1.27704 0.24651
Si	    2.797804	    0.093658	    2.639472	-1.42640 1.11893 -0.59516
Si	    2.760512	    3.004741	    0.045412	-0.85149 -1.02135 -1.17919
Si	    4.043286	    1.364588	    4.136532	-1.26307 1.44843 -1.05251
Si	    1.315956	    1.670391	    1.385008	1.15366 -1.83387 -0.92328
Si	    1.330864	    4.335882	    3.995002	-0.15191 -1.41809 1.20533
Si	    4.148485	    4.165792	    1.371333	1.07504 -0.08650 0.63946
Lattice="5.4307000 0.0000000 0.0000000 0.0000000 5.4307000 0.0000000 0.0000000 0.0000000 5.4307000" Energy=-1383.683625 Properties=species:S:1:pos:R:3:force:R:3
Si	    0.000223	    0.241601	   -0.076003	1.57564 -0.23283 1.85286
Si	   -0.043837	    2.767159	    2.774355	0.33397 0.95795 1.08296
Si	    2.815134	    0.087896	    2.644642	-2.23272 0.60001 -1.01343
Si	    2.779286	    3.006446	    0.039438	-1.70252 -0.94858 -0.49399
Si	    3.997212	    1.396673	    4.124986	-0.00908 2.06811 -0.33485
Si	    1.317298	    1.624914	    1.397504	1.33292 -1.06197 -1.22386
Si	    1.350230	    4.332292	    4.002263	0.29192 -1.07670 0.93518
Si	    4.168736	    4.180911	    1.330114	0.40989 -0.30598 -0.80488
Lattice="5.4307000 0.0000000 0.0000000 0.0000000 5.4307000 0.0000000 0.0000000 0.0000000 5.4307000" Energy=-1383.736833 Properties=species:S:1:pos:R:3:force:R:3
Si	    0.035897	    0.304673	   -0.081721	0.80622 -1.57661 0.35020
Si	   -0.034995	    2.772307	    2.765443	-0.00027 1.12766 0.37482
Si	    2.801046	    0.080668	    2.633602	-1.44272 0.54666 -0.84280
Si	    2.786079	    2.991718	    0.032133	-2.11127 -0.92432 -0.02139
Si	    3.959947	    1.441840	    4.111100	1.65126 0.84093 -0.00242
Si	    1.333014	    1.573084	    1.399877	0.70160 1.30447 -1.20246
Si	    1.373397	    4.330114	    4.021667	1.07640 -1.08271 0.21529
Si	    4.191995	    4.193771	    1.281200	-0.68122 -0.23607 1.12876
Lattice="5.4307000 0.0000000 0.0000000 0.0000000 5.4307000 0.0000000 0.0000000 0.0000000 5.4307000" Energy=-1383.585019 Properties=species:S:1:pos:R:3:force:R:3
Si	    0.072364	    0.357362	   -0.090953	-0.33831 0.07702 -0.03129
Si	   -0.026263	    2.800058	    2.756721	-0.51789 0.93375 -0.35894
Si	    2.775370	    0.072174	    2.614801	0.09282 0.51310 -0.20896
Si	    2.768489	    2.978446	    0.033915	-1.93281 -0.95236 -0.42693
Si	    3.944882	    1.483260	    4.105908	2.16766 -0.79573 -0.07878