1.562489223480224609e+01 0.000000000000000000e+00 0.000000000000000000e+00 0.000000000000000000e+00 1.562489223480224609e+01 0.000000000000000000e+00 0.000000000000000000e+00 0.000000000000000000e+00 1.562489223480224609e+01
1.552523136138916016e+01 0.000000000000000000e+00 0.000000000000000000e+00 0.000000000000000000e+00 1.552523136138916016e+01 0.000000000000000000e+00 0.000000000000000000e+00 0.000000000000000000e+00 1.552523136138916016e+01
1.559844017028808594e+01 0.000000000000000000e+00 0.000000000000000000e+00 0.000000000000000000e+00 1.559844017028808594e+01 0.000000000000000000e+00 0.000000000000000000e+00 0.000000000000000000e+00 1.559844017028808594e+01
1.560983848571777344e+01 0.000000000000000000e+00 0.000000000000000000e+00 0.000000000000000000e+00 1.560983848571777344e+01 0.000000000000000000e+00 0.000000000000000000e+00 0.000000000000000000e+00 1.560983848571777344e+01
1.584001255035400391e+01 0.000000000000000000e+00 0.000000000000000000e+00 0.000000000000000000e+00 1.584001255035400391e+01 0.000000000000000000e+00 0.000000000000000000e+00 0.000000000000000000e+00 1.584001255035400391e+01
1.537652397155761719e+01 0.000000000000000000e+00 0.000000000000000000e+00 0.000000000000000000e+00 1.537652397155761719e+01 0.000000000000000000e+00 0.000000000000000000e+00 0.000000000000000000e+00 1.537652397155761719e+01
1.555925559997558594e+01 0.000000000000000000e+00 0.000000000000000000e+00 0.000000000000000000e+00 1.555925559997558594e+01 0.000000000000000000e+00 0.000000000000000000e+00 0.000000000000000000e+00 1.555925559997558594e+01
1.582020568847656250e+01 0.000000000000000000e+00 0.000000000000000000e+00 0.000000000000000000e+00 1.582020568847656250e+01 0.000000000000000000e+00 0.000000000000000000e+00 0.000000000000000000e+00 1.582020568847656250e+01
1.559316349029541016e+01 0.000000000000000000e+00 0.000000000000000000e+00 0.000000000000000000e+00 1.559316349029541016e+01 0.000000000000000000e+00 0.000000000000000000e+00 0.000000000000000000e+00 1.559316349029541016e+01
1.566896820068359375e+01 0.000000000000000000e+00 0.000000000000000000e+00 0.000000000000000000e+00 1.566896820068359375e+01 0.000000000000000000e+00 0.000000000000000000e+00 0.000000000000000000e+00 1.566896820068359375e+01
1.542332649230957031e+01 0.000000000000000000e+00 0.000000000000000000e+00 0.000000000000000000e+00 1.542332649230957031e+01 0.000000000000000000e+00 0.000000000000000000e+00 0.000000000000000000e+00 1.542332649230957031e+01
1.551911354064941406e+01 0.000000000000000000e+00 0.000000000000000000e+00 0.000000000000000000e+00 1.551911354064941406e+01 0.000000000000000000e+00 0.000000000000000000e+00 0.000000000000000000e+00 1.551911354064941406e+01
1.550374031066894531e+01 0.000000000000000000e+00 0.000000000000000000e+00 0.000000000000000000e+00 1.550374031066894531e+01 0.000000000000000000e+00 0.000000000000000000e+00 0.000000000000000000e+00 1.550374031066894531e+01
1.538965797424316406e+01 0.000000000000000000e+00 0.000000000000000000e+00 0.000000000000000000e+00 1.538965797424316406e+01 0.000000000000000000e+00 0.000000000000000000e+00 0.000000000000000000e+00 1.538965797424316406e+01
1.567929553985595703e+01 0.000000000000000000e+00 0.000000000000000000e+00 0.000000000000000000e+00 1.567929553985595703e+01 0.000000000000000000e+00 0.000000000000000000e+00 0.000000000000000000e+00 1.567929553985595703e+01
1.586019802093505859e+01 0.000000000000000000e+00 0.000000000000000000e+00 0.000000000000000000e+00 1.586019802093505859e+01 0.000000000000000000e+00 0.000000000000000000e+00 0.000000000000000000e+00 1.586019802093505859e+01
1.559009838104248047e+01 0.000000000000000000e+00 0.000000000000000000e+00 0.000000000000000000e+00 1.559009838104248047e+01 0.000000000000000000e+00 0.000000000000000000e+00 0.000000000000000000e+00 1.559009838104248047e+01
1.549465656280517578e+01 0.000000000000000000e+00 0.000000000000000000e+00 0.000000000000000000e+00 1.549465656280517578e+01 0.000000000000000000e+00 0.000000000000000000e+00 0.000000000000000000e+00 1.549465656280517578e+01
1.568867492675781250e+01 0.000000000000000000e+00 0.000000000000000000e+00 0.000000000000000000e+00 1.568867492675781250e+01 0.000000000000000000e+00 0.000000000000000000e+00 0.000000000000000000e+00 1.568867492675781250e+01
1.548827648162841797e+01 0.000000000000000000e+00 0.000000000000000000e+00 0.000000000000000000e+00 1.548827648162841797e+01 0.000000000000000000e+00 0.000000000000000000e+00 0.000000000000000000e+00 1.548827648162841797e+01
1.569327259063720703e+01 0.000000000000000000e+00 0.000000000000000000e+00 0.000000000000000000e+00 1.569327259063720703e+01 0.000000000000000000e+00 0.000000000000000000e+00 0.000000000000000000e+00 1.569327259063720703e+01
1.554623031616210938e+01 0.000000000000000000e+00 0.000000000000000000e+00 0.000000000000000000e+00 1.554623031616210938e+01 0.000000000000000000e+00 0.000000000000000000e+00 0.000000000000000000e+00 1.554623031616210938e+01
1.535499286651611328e+01 0.000000000000000000e+00 0.000000000000000000e+00 0.000000000000000000e+00 1.535499286651611328e+01 0.000000000000000000e+00 0.000000000000000000e+00 0.000000000000000000e+00 1.535499286651611328e+01
1.564584636688232422e+01 0.000000000000000000e+00 0.000000000000000000e+00 0.000000000000000000e+00 1.564584636688232422e+01 0.000000000000000000e+00 0.000000000000000000e+00 0.000000000000000000e+00 1.564584636688232422e+01
1.564906692504882812e+01 0.000000000000000000e+00 0.000000000000000000e+00 0.000000000000000000e+00 1.564906692504882812e+01 0.000000000000000000e+00 0.000000000000000000e+00 0.000000000000000000e+00 1.564906692504882812e+01
1.554125785827636719e+01 0.000000000000000000e+00 0.000000000000000000e+00 0.000000000000000000e+00 1.554125785827636719e+01 0.000000000000000000e+00 0.000000000000000000e+00 0.000000000000000000e+00 1.554125785827636719e+01
1.546146011352539062e+01 0.000000000000000000e+00 0.000000000000000000e+00 0.000000000000000000e+00 1.546146011352539062e+01 0.000000000000000000e+00 0.000000000000000000e+00 0.000000000000000000e+00 1.546146011352539062e+01
1.576319408416748047e+01 0.000000000000000000e+00 0.000000000000000000e+00 0.000000000000000000e+00 1.576319408416748047e+01 0.000000000000000000e+00 0.000000000000000000e+00 0.000000000000000000e+00 1.576319408416748047e+01
1.581156444549560547e+01 0.000000000000000000e+00 0.000000000000000000e+00 0.000000000000000000e+00 1.581156444549560547e+01 0.000000000000000000e+00 0.000000000000000000e+00 0.000000000000000000e+00 1.581156444549560547e+01
1.548977565765380859e+01 0.000000000000000000e+00 0.000000000000000000e+00 0.000000000000000000e+00 1.548977565765380859e+01 0.000000000000000000e+00 0.000000000000000000e+00 0.000000000000000000e+00 1.548977565765380859e+01
1.542754554748535156e+01 0.000000000000000000e+00 0.000000000000000000e+00 0.000000000000000000e+00 1.542754554748535156e+01 0.000000000000000000e+00 0.000000000000000000e+00 0.000000000000000000e+00 1.542754554748535156e+01
1.548278141021728516e+01 0.000000000000000000e+00 0.000000000000000000e+00 0.000000000000000000e+00 1.548278141021728516e+01 0.000000000000000000e+00 0.000000000000000000e+00 0.000000000000000000e+00 1.548278141021728516e+01
1.549456214904785156e+01 0.000000000000000000e+00 0.000000000000000000e+00 0.000000000000000000e+00 1.549456214904785156e+01 0.000000000000000000e+00 0.000000000000000000e+00 0.000000000000000000e+00 1.549456214904785156e+01
1.548567390441894531e+01 0.000000000000000000e+00 0.000000000000000000e+00 0.000000000000000000e+00 1.548567390441894531e+01 0.000000000000000000e+00 0.000000000000000000e+00 0.000000000000000000e+00 1.548567390441894531e+01
1.571294498443603516e+01 0.000000000000000000e+00 0.000000000000000000e+00 0.000000000000000000e+00 1.571294498443603516e+01 0.000000000000000000e+00 0.000000000000000000e+00 0.000000000000000000e+00 1.571294498443603516e+01
1.562608623504638672e+01 0.000000000000000000e+00 0.000000000000000000e+00 0.000000000000000000e+00 1.562608623504638672e+01 0.000000000000000000e+00 0.000000000000000000e+00 0.000000000000000000e+00 1.562608623504638672e+01
1.568145179748535156e+01 0.000000000000000000e+00 0.000000000000000000e+00 0.000000000000000000e+00 1.568145179748535156e+01 0.000000000000000000e+00 0.000000000000000000e+00 0.000000000000000000e+00 1.568145179748535156e+01
1.535476493835449219e+01 0.000000000000000000e+00 0.000000000000000000e+00 0.000000000000000000e+00 1.535476493835449219e+01 0.000000000000000000e+00 0.000000000000000000e+00 0.000000000000000000e+00 1.535476493835449219e+01
1.568536949157714844e+01 0.000000000000000000e+00 0.000000000000000000e+00 0.000000000000000000e+00 1.568536949157714844e+01 0.000000000000000000e+00 0.000000000000000000e+00 0.000000000000000000e+00 1.568536949157714844e+01
1.533163928985595703e+01 0.000000000000000000e+00 0.000000000000000000e+00 0.000000000000000000e+00 1.533163928985595703e+01 0.000000000000000000e+00 0.000000000000000000e+00 0.000000000000000000e+00 1.533163928985595703e+01
1.567741775512695312e+01 0.000000000000000000e+00 0.000000000000000000e+00 0.000000000000000000e+00 1.567741775512695312e+01 0.000000000000000000e+00 0.000000000000000000e+00 0.000000000000000000e+00 1.567741775512695312e+01
1.565817832946777344e+01 0.000000000000000000e+00 0.000000000000000000e+00 0.000000000000000000e+00 1.565817832946777344e+01 0.000000000000000000e+00 0.000000000000000000e+00 0.000000000000000000e+00 1.565817832946777344e+01
1.556086254119873047e+01 0.000000000000000000e+00 0.000000000000000000e+00 0.000000000000000000e+00 1.556086254119873047e+01 0.000000000000000000e+00 0.000000000000000000e+00 0.000000000000000000e+00 1.556086254119873047e+01
