-1.884320922851562500e+03
-1.881069213867187500e+03
-1.880570312500000000e+03
-1.881553588867187500e+03
-1.883210571289062500e+03
-1.879873291015625000e+03
-1.881353271484375000e+03
-1.882019531250000000e+03
-1.879116821289062500e+03
-1.882182006835937500e+03
-1.880968750000000000e+03
-1.879854370117187500e+03
-1.879203735351562500e+03
-1.879694824218750000e+03
-1.881163940429687500e+03
-1.881754882812500000e+03
-1.879679809570312500e+03
-1.878857055664062500e+03
-1.880170043945312500e+03
-1.880669433593750000e+03
-1.882627807617187500e+03
-1.879974365234375000e+03
-1.879167724609375000e+03
-1.879499023437500000e+03
-1.882328857421875000e+03
-1.878498901367187500e+03
-1.880234130859375000e+03
-1.882612426757812500e+03
-1.883891113281250000e+03
-1.880544555664062500e+03
-1.879264526367187500e+03
-1.879362304687500000e+03
-1.877969604492187500e+03
-1.880517333984375000e+03
-1.879527221679687500e+03
-1.880931884765625000e+03
-1.881355346679687500e+03
-1.878026245117187500e+03
-1.883698242187500000e+03
-1.877344360351562500e+03
-1.879982666015625000e+03
-1.881475952148437500e+03
-1.881170898437500000e+03
