-6.754080057144165039e-01 9.444499760866165161e-02 7.885389924049377441e-01 5.254600048065185547e-01 -5.025539994239807129e-01 6.096150279045104980e-01 1.145630031824111938e-01 -7.957080006599426270e-01 -1.256924986839294434e+00 9.571520090103149414e-01 -2.662479877471923828e-01 -7.312999665737152100e-02 1.747177958488464355e+00 2.726840078830718994e-01 8.728119730949401855e-01 2.123199962079524994e-02 1.941999979317188263e-02 1.367120981216430664e+00 -1.863008022308349609e+00 -9.388319849967956543e-01 -1.186442017555236816e+00 3.212000131607055664e-01 1.385367035865783691e+00 -7.713100314140319824e-02 3.185940086841583252e-01 -1.053459048271179199e+00 -4.352149963378906250e-01 2.532959878444671631e-01 -7.743290066719055176e-01 1.195749998092651367e+00 -1.283300071954727173e-01 -6.669769883155822754e-01 2.183399945497512817e-01 -1.772413969039916992e+00 1.409039944410324097e-01 -7.337499856948852539e-01 -4.504200071096420288e-02 1.268777966499328613e+00 -4.388250112533569336e-01 -2.721149921417236328e-01 -1.322589963674545288e-01 -3.302499949932098389e-01 1.335934042930603027e+00 2.157810032367706299e-01 6.595159769058227539e-01 1.328050971031188965e+00 -1.532469987869262695e-01 1.321782946586608887e+00 5.538759827613830566e-01 -1.026360020041465759e-01 2.354110032320022583e-01 -7.018880248069763184e-01 -6.631000339984893799e-02 8.125140070915222168e-01 -1.184590011835098267e-01 -3.818149864673614502e-01 3.135490119457244873e-01 9.733830094337463379e-01 -4.885529875755310059e-01 -9.279779791831970215e-01 -4.409520030021667480e-01 1.558693051338195801e+00 -3.333950042724609375e-01 1.332883954048156738e+00 1.660239994525909424e-01 1.598314046859741211e+00 2.101296901702880859e+00 -3.512670099735260010e-01 -1.106740012764930725e-01 -9.707940220832824707e-01 6.740710139274597168e-01 7.951110005378723145e-01 -3.223080039024353027e-01 -9.168440103530883789e-01 4.883790016174316406e-01 3.937489986419677734e-01 -1.207730025053024292e-01 -3.717739880084991455e-01 -1.905010044574737549e-01 -1.198014020919799805e+00 8.131840229034423828e-01 -2.635600045323371887e-02 -9.812600016593933105e-01 1.190583944320678711e+00 6.178320050239562988e-01 -6.048780083656311035e-01 5.540779829025268555e-01 -2.903290092945098877e-01 -1.138574004173278809e+00 1.607117056846618652e+00 9.685109853744506836e-01 1.060706973075866699e+00 5.930309891700744629e-01 1.232203006744384766e+00 1.894149929285049438e-01 -1.401723027229309082e+00 -5.345649719238281250e-01 -9.150930047035217285e-01 1.791214942932128906e+00 9.225890040397644043e-01 -5.322459936141967773e-01 9.128999710083007812e-02 -7.540169954299926758e-01 4.601249992847442627e-01 -5.579019784927368164e-01 7.600799947977066040e-02 1.257228970527648926e+00 -3.295499831438064575e-02 4.353019893169403076e-01 -2.459820061922073364e-01 1.070374011993408203e+00 -1.132146954536437988e+00 3.935750126838684082e-01 -2.550410032272338867e-01 1.994964003562927246e+00 4.215179979801177979e-01 -3.049699962139129639e-02 -1.124323010444641113e+00 -4.196879863739013672e-01 5.670100077986717224e-02 8.920670151710510254e-01 3.323450088500976562e-01 1.083574056625366211e+00 1.069435000419616699e+00 9.219869971275329590e-01 1.389709949493408203e+00 1.677700996398925781e+00 -1.236919999122619629e+00 3.075979948043823242e-01 -2.184109985828399658e-01 8.610290288925170898e-01 -5.491999983787536621e-01 -2.068123102188110352e+00 1.947810053825378418e-01 -3.779599964618682861e-01 7.876480221748352051e-01 6.556000113487243652e-01 -1.267683982849121094e+00 -6.396440267562866211e-01 -1.752859950065612793e-01 2.885864973068237305e+00 8.628829717636108398e-01 -2.940262079238891602e+00 -1.027150988578796387e+00 -3.264049887657165527e-01 1.529040038585662842e-01 -9.016799926757812500e-02 2.192400023341178894e-02 -3.701649904251098633e-01 1.808169931173324585e-01 1.037991046905517578e+00 5.433009862899780273e-01 -1.235330030322074890e-01 -9.211300015449523926e-01 -6.682239770889282227e-01 1.362999975681304932e-01 7.140870094299316406e-01 -5.075569748878479004e-01 1.603320956230163574e+00 -8.166000247001647949e-03 2.552799880504608154e-01 1.689310073852539062e-01 1.016487956047058105e+00 1.675557017326354980e+00 1.177783966064453125e+00 6.499300003051757812e-01 3.094953060150146484e+00 -6.563500314950942993e-02 1.523900032043457031e-02 8.725730180740356445e-01 -1.992940008640289307e-01 1.340878963470458984e+00 7.218989729881286621e-01 -1.710699945688247681e-01 3.509539961814880371e-01 1.843380033969879150e-01 1.084885001182556152e+00 1.042500972747802734e+00 6.362000107765197754e-01 -1.023930013179779053e-01 1.081007957458496094e+00 9.516620039939880371e-01 -8.249800205230712891e-01 3.718499839305877686e-02 5.648279786109924316e-01 -2.895239889621734619e-01 9.563590288162231445e-01 7.359640002250671387e-01 6.387289762496948242e-01 -2.777599990367889404e-01 7.513989806175231934e-01 -5.220720171928405762e-01 1.310068011283874512e+00 -1.080109998583793640e-01 7.881320118904113770e-01 5.185179710388183594e-01 -6.330279707908630371e-01 -9.011899828910827637e-01 -5.297620296478271484e-01 -5.781900137662887573e-02 -3.175849914550781250e-01 6.227899789810180664e-01 4.936319887638092041e-01 -6.452749967575073242e-01 8.600659966468811035e-01 -4.733259975910186768e-01 3.180334091186523438e+00 -7.021179795265197754e-01 -1.443870067596435547e-01 -2.716932058334350586e+00 -1.083752036094665527e+00 -1.461727023124694824e+00 -1.627169996500015259e-01 -9.862799942493438721e-02 -1.101858019828796387e+00 -5.387979745864868164e-01 4.497840106487274170e-01 -9.273769855499267578e-01 6.565470099449157715e-01 4.964990019798278809e-01 -1.166623950004577637e+00 1.012351036071777344e+00 -3.722200170159339905e-02 -4.829390048980712891e-01 3.577950000762939453e-01 -5.047460198402404785e-01 7.792059779167175293e-01 -1.108044028282165527e+00 -6.051500141620635986e-02 -8.457220196723937988e-01 -9.374960064888000488e-01 -7.042490243911743164e-01 -1.028599977493286133e+00 9.691429734230041504e-01 1.094406008720397949e+00 1.879529953002929688e+00 -2.471697092056274414e+00 4.429929852485656738e-01 2.835870087146759033e-01 -4.447399824857711792e-02 7.475800067186355591e-02 -6.186000071465969086e-03 9.953969717025756836e-01 4.100000078324228525e-04 6.179440021514892578e-01 -1.179098963737487793e+00 2.755125999450683594e+00 7.946270108222961426e-01 4.655919969081878662e-01 -7.199500203132629395e-01 1.288570016622543335e-01 1.914490014314651489e-01 1.205661058425903320e+00 -1.709910035133361816e-01 1.377704977989196777e+00 -9.236099720001220703e-01 1.246669963002204895e-01 -4.622099995613098145e-01 4.226100146770477295e-01 1.452162981033325195e+00 1.177098035812377930e+00 2.109540939331054688e+00 1.461919993162155151e-01 -1.285511970520019531e+00 5.483120083808898926e-01 1.535370051860809326e-01 -9.059529900550842285e-01 -6.428500264883041382e-02 -3.567349910736083984e-01 -4.066109955310821533e-01 7.603089809417724609e-01 -1.771378040313720703e+00 -1.497579962015151978e-01 -5.670300126075744629e-02 2.082619965076446533e-01 2.855949997901916504e-01 1.134168028831481934e+00 5.217399820685386658e-02 -7.578439712524414062e-01 5.151649713516235352e-01 -6.982280015945434570e-01 1.600617051124572754e+00 2.045335054397583008e+00 2.684490919113159180e+00 -1.752042055130004883e+00 -5.434250235557556152e-01 -5.222700238227844238e-01 -4.060000181198120117e-02 -7.234060168266296387e-01 9.852999821305274963e-03 4.992200136184692383e-01 -9.604390263557434082e-01 -8.339300006628036499e-02 5.194900035858154297e-01 -3.478559851646423340e-01 5.400890111923217773e-01 6.362599879503250122e-02 1.183228015899658203e+00 1.964009046554565430e+00 -1.455965042114257812e+00 -1.838742017745971680e+00 -9.952669739723205566e-01 1.215080022811889648e-01 1.010936021804809570e+00 2.955749928951263428e-01 1.303257942199707031e+00 -6.477659940719604492e-01 -4.894669950008392334e-01 -5.066040158271789551e-01 -2.257105112075805664e+00 -1.497864961624145508e+00 5.360869765281677246e-01 -7.818139791488647461e-01 -4.269649982452392578e-01 6.248970031738281250e-01 -9.043589830398559570e-01 -2.096289992332458496e-01 -1.057629942893981934e+00 -2.273689955472946167e-01 -1.248182058334350586e+00 1.670577049255371094e+00 -8.662000298500061035e-02 -1.034649983048439026e-01 -1.164199970662593842e-02 7.255600094795227051e-01 1.763700008392333984e+00 -1.706070005893707275e-01 2.001538991928100586e+00 1.622119992971420288e-01 -5.503780245780944824e-01 6.651129722595214844e-01 -1.818580031394958496e-01 -4.069350063800811768e-01 4.876329898834228516e-01 7.425569891929626465e-01 5.277460217475891113e-01 -4.356670081615447998e-01 4.761289954185485840e-01 -6.113000214099884033e-03 -6.128119826316833496e-01 -4.491080045700073242e-01 2.480258941650390625e+00 -8.331059813499450684e-01 -2.377372980117797852e+00 7.653160095214843750e-01 -8.913180232048034668e-01 8.935499936342239380e-02 1.317855954170227051e+00 -9.343680143356323242e-01 -1.102246999740600586e+00 -3.322890102863311768e-01 1.729030013084411621e-01 -3.929600119590759277e-02 4.098519980907440186e-01 3.111749887466430664e-01 -1.204352974891662598e+00 1.135319948196411133e+00 -9.840310215950012207e-01 -1.046499982476234436e-01 -2.148720026016235352e-01 1.233183979988098145e+00 5.195329785346984863e-01 1.676000058650970459e-01 7.478599995374679565e-02 -1.476416945457458496e+00 -2.118062019348144531e+00 1.306735992431640625e+00 -4.253070056438446045e-01 2.463680058717727661e-01 -4.947200119495391846e-01 -8.727769851684570312e-01 4.335980117321014404e-01 -2.372190058231353760e-01 -8.617939949035644531e-01 2.107731103897094727e+00 1.086959958076477051e+00 1.507599949836730957e+00 -3.023749887943267822e-01 4.114939868450164795e-01 1.737231969833374023e+00 -1.581102013587951660e+00 -2.909319996833801270e-01 5.254719853401184082e-01 1.545470058917999268e-01 2.311999909579753876e-03 1.682009994983673096e-01 -3.636800125241279602e-02 1.200599968433380127e-02 -1.007999991998076439e-03 -5.140699744224548340e-01 -2.212020009756088257e-01 8.294899761676788330e-02 9.685639739036560059e-01 1.343359947204589844e-01 3.422670066356658936e-01 -1.292379945516586304e-01 5.036299824714660645e-01 -1.852030009031295776e-01 -8.889269828796386719e-01 -4.685820043087005615e-01 6.283999979496002197e-02 -2.566669881343841553e-01 7.485400140285491943e-02 3.979749977588653564e-01 4.411480128765106201e-01 -5.617100000381469727e-01 1.966219991445541382e-01 8.755200356245040894e-02 -1.571867942810058594e+00 5.466699972748756409e-02 6.695200204849243164e-01 -2.033179998397827148e-01 -3.821859955787658691e-01 -9.976639747619628906e-01 9.369509816169738770e-01 5.041599869728088379e-01 5.507810115814208984e-01 -7.239040136337280273e-01 -5.842109918594360352e-01 -2.409520000219345093e-01 -2.569800056517124176e-02 -1.608559936285018921e-01 -1.717883944511413574e+00 3.083119988441467285e-01 1.082779988646507263e-01 -2.145700007677078247e-01 3.728980123996734619e-01 -2.592250108718872070e-01 5.181099772453308105e-01 -5.013920068740844727e-01 -3.930400013923645020e-01 4.192779958248138428e-01 3.402769863605499268e-01 3.361999988555908203e-01 -8.254399895668029785e-02 1.279139965772628784e-01 -3.531869947910308838e-01 8.534699678421020508e-02 -1.529610008001327515e-01 5.586349964141845703e-01 -2.795000076293945312e-01 3.683609962463378906e-01 -5.568959712982177734e-01 1.194990992546081543e+00 -1.651200056076049805e-01 7.420629858970642090e-01 1.803169995546340942e-01 2.257979959249496460e-01 4.359059929847717285e-01 -4.173099994659423828e-01 9.969899803400039673e-02 5.242570042610168457e-01 -1.899950057268142700e-01 1.016644954681396484e+00 6.303279995918273926e-01 -8.437309861183166504e-01 8.449299633502960205e-02 -1.611619949340820312e+00 2.300850003957748413e-01 2.126899957656860352e-01 -7.275400310754776001e-02 4.874800145626068115e-02 -6.089479923248291016e-01 -9.812399744987487793e-02 -4.679830074310302734e-01 -1.016374945640563965e+00 1.847860068082809448e-01 -2.065321922302246094e+00 -5.347210168838500977e-01 -5.157799720764160156e-01 1.940300017595291138e-01 7.778000086545944214e-02 -7.895699888467788696e-02 3.157509863376617432e-01 -6.449990272521972656e-01 -4.407629966735839844e-01 -6.870999932289123535e-03 -1.163929998874664307e-01 -1.369889974594116211e-01 3.752079904079437256e-01 -2.443339973688125610e-01 -7.187200337648391724e-02 -8.332539796829223633e-01 9.511680006980895996e-01 5.106220245361328125e-01 5.604499951004981995e-02 7.697070240974426270e-01 -1.341090053319931030e-01 -4.698000103235244751e-02 -1.318130046129226685e-01 2.633939981460571289e-01 6.463100016117095947e-02 1.254779994487762451e-01 3.693870007991790771e-01 -2.987860143184661865e-01 2.235520035028457642e-01 -3.433139920234680176e-01 -4.948480129241943359e-01 -7.564699649810791016e-02 1.077422022819519043e+00 -2.186370044946670532e-01 2.434979975223541260e-01 1.369709968566894531e-01 4.911290109157562256e-01 4.867399856448173523e-02 3.159430027008056641e-01 -1.646099984645843506e-02 -1.509541034698486328e+00 1.735240072011947632e-01 -1.355661988258361816e+00 -6.465809941291809082e-01 6.980440020561218262e-01 2.185689955949783325e-01 -2.875849902629852295e-01 -6.165040135383605957e-01 -1.021703958511352539e+00 3.458110094070434570e-01 -1.585106968879699707e+00 3.272469937801361084e-01 -2.626399993896484375e-01 -2.357980012893676758e-01 -3.773970007896423340e-01 -8.476210236549377441e-01 -4.947929978370666504e-01 5.766100063920021057e-02 8.737019896507263184e-01 -9.595300257205963135e-02 1.136410012841224670e-01 3.828589916229248047e-01 7.591999769210815430e-01 3.149209916591644287e-01 -3.918389976024627686e-01 2.380989938974380493e-01 -8.609430193901062012e-01 -7.797800004482269287e-02 3.835580050945281982e-01 -7.150799781084060669e-02 -3.668859899044036865e-01 4.546729922294616699e-01 -3.355250060558319092e-01 3.714299947023391724e-02 2.089339941740036011e-01 -4.748089909553527832e-01 -4.798429906368255615e-01 -2.305799908936023712e-02 1.026932001113891602e+00 1.011380031704902649e-01 9.755259752273559570e-01 4.183439910411834717e-01 -7.057430148124694824e-01 1.543660014867782593e-01 -5.810449719429016113e-01 -4.388130009174346924e-01 -3.748140037059783936e-01 -1.388680040836334229e-01 5.829839706420898438e-01 1.268201947212219238e+00 -1.216590046882629395e+00 -1.204465031623840332e+00 -7.157279849052429199e-01 -9.631299972534179688e-01 2.781310081481933594e-01 3.827109932899475098e-01 -2.514109909534454346e-01 5.817459821701049805e-01 4.065259993076324463e-01 -3.797779977321624756e-01 -1.311219930648803711e-01 -2.604430019855499268e-01 -5.515220165252685547e-01 1.910919994115829468e-01 -5.244499817490577698e-02 3.478510081768035889e-01 -7.806069850921630859e-01 -2.415490001440048218e-01 6.412460207939147949e-01 -1.164199970662593842e-02 6.892920136451721191e-01 -2.324282884597778320e+00 -1.283025026321411133e+00 1.182050943374633789e+00 1.892050057649612427e-01 2.713240087032318115e-01 -8.272999897599220276e-03 -7.497899979352951050e-02 -4.929789900779724121e-01 -1.265022039413452148e+00 8.517900109291076660e-01 -1.492789983749389648e-01 -2.675399929285049438e-02 -1.703130006790161133e-01 4.977599978446960449e-01 -2.241279929876327515e-01 -7.741720080375671387e-01 6.487709879875183105e-01 -8.214899897575378418e-02 -2.670699954032897949e-01 5.194590091705322266e-01 1.404359936714172363e-01 -1.487070024013519287e-01 -7.358480095863342285e-01 -9.627799689769744873e-02 -4.187749922275543213e-01 1.141085028648376465e+00 -4.249300062656402588e-02 2.387949973344802856e-01 -1.869562983512878418e+00 -1.624960005283355713e-01 3.193200007081031799e-02 8.959429860115051270e-01 2.043260037899017334e-01 1.843390017747879028e-01 4.994029998779296875e-01 4.408290088176727295e-01 -4.734550118446350098e-01 1.233429983258247375e-01 -2.312099933624267578e-02 1.886570006608963013e-01 2.215299941599369049e-02 -2.248100005090236664e-02 -3.567630052566528320e-01 7.071699947118759155e-02 1.027500033378601074e-01 9.113900363445281982e-02 -2.548429965972900391e-01 -3.174389898777008057e-01 -8.855550289154052734e-01 -5.409989953041076660e-01 -2.433789968490600586e-01 -3.293299973011016846e-01 -8.784509897232055664e-01 1.909849941730499268e-01 2.271790057420730591e-01 -2.243430018424987793e-01 -4.573720097541809082e-01 4.366180002689361572e-01 -2.192199975252151489e-02 6.861109733581542969e-01 -2.766210138797760010e-01 -1.294720023870468140e-01 -7.813299894332885742e-01 -8.412150144577026367e-01 -7.819409966468811035e-01 1.656036019325256348e+00 -5.462380051612854004e-01 -1.120550036430358887e-01 -3.578720092773437500e-01 7.005599886178970337e-02 4.923369884490966797e-01 1.598770022392272949e-01 7.456599920988082886e-02 -9.362429976463317871e-01 3.381690084934234619e-01 -6.601759791374206543e-01 1.732321977615356445e+00 -3.135359883308410645e-01 -4.392200112342834473e-01 -1.337663054466247559e+00 2.015903949737548828e+00 1.020709991455078125e+00 8.802970051765441895e-01 -8.195699751377105713e-02 -3.200629949569702148e-01 3.688319921493530273e-01 -9.427390098571777344e-01 1.957427024841308594e+00 -9.077500104904174805e-01 2.001810073852539062e-01 -1.450104951858520508e+00 -2.509999903850257397e-04 7.729470133781433105e-01 1.433899998664855957e-01 5.299000069499015808e-03 -4.429250061511993408e-01 2.811050117015838623e-01 -2.882399968802928925e-02 -1.950380057096481323e-01 -8.674999698996543884e-03 1.130610033869743347e-01 -2.058629989624023438e-01 -2.686469852924346924e-01 -1.379410028457641602e-01 3.460280001163482666e-01 -4.905489981174468994e-01 5.227300152182579041e-02 1.645040065050125122e-01 -1.156010031700134277e-01 -5.750000127591192722e-04 2.326209992170333862e-01 -2.446000091731548309e-02 -7.634680271148681641e-01 -3.461169898509979248e-01 5.668910145759582520e-01 6.636279821395874023e-01 -2.437759935855865479e-01 2.078170031309127808e-01 -1.299629956483840942e-01 -1.445090025663375854e-01 -2.115979939699172974e-01 -1.611000001430511475e-01 -4.613960087299346924e-01 3.367030024528503418e-01 -7.000120282173156738e-01 -8.145650029182434082e-01 -9.217309951782226562e-01 -1.186879038810729980e+00 -5.527459979057312012e-01 -3.482080101966857910e-01 1.290259957313537598e+00 -6.033400073647499084e-02 -1.641120016574859619e-01 1.700450032949447632e-01 -2.469300031661987305e-01 1.895000040531158447e-02 3.781700134277343750e-02 -3.318809866905212402e-01 3.450619876384735107e-01 5.571020245552062988e-01 -2.589991092681884766e+00 7.079079747200012207e-01 2.285840064287185669e-01 -1.183409988880157471e-01 6.285030245780944824e-01 -5.737439990043640137e-01 -4.255810081958770752e-01 -4.986700043082237244e-02 -4.210900142788887024e-02 -3.234870135784149170e-01 -1.054597973823547363e+00 -1.546241044998168945e+00 -6.687600016593933105e-01 9.550099819898605347e-02 -4.947650134563446045e-01 -7.206329703330993652e-01 -4.912430047988891602e-01 -4.308469891548156738e-01 2.306060045957565308e-01 4.667500033974647522e-02 -7.634630203247070312e-01 -7.821200042963027954e-02 5.789999961853027344e-01 -2.311699986457824707e-01 5.405600070953369141e-01 5.049000028520822525e-03 2.332810014486312866e-01 -4.650520086288452148e-01 2.396270036697387695e-01 8.412200212478637695e-02 -1.050620004534721375e-01 3.880150020122528076e-01 -1.557194948196411133e+00 -4.650000110268592834e-02 -1.210710033774375916e-01 -1.037829965353012085e-01 -2.355519980192184448e-01 9.909999789670109749e-04 -8.053820133209228516e-01 -5.443090200424194336e-01 5.495250225067138672e-01 4.427840113639831543e-01 -3.041600063443183899e-02 3.746559917926788330e-01 6.026440262794494629e-01 -7.731639742851257324e-01 -3.536570072174072266e-01 9.843199700117111206e-02 -3.261669874191284180e-01 5.464349985122680664e-01 -5.698930025100708008e-01 6.053289771080017090e-01 9.673000127077102661e-02 -4.411540031433105469e-01 1.676600053906440735e-02 2.626399993896484375e-01 -7.355960011482238770e-01 -1.005362987518310547e+00 -2.178069949150085449e-01 -4.086199998855590820e-01 -8.125200122594833374e-02 5.446699857711791992e-01 -9.910519719123840332e-01 -6.132150292396545410e-01 -5.543929934501647949e-01 -2.591330111026763916e-01 6.876350045204162598e-01 5.489050149917602539e-01 -3.489669859409332275e-01 -2.849220037460327148e-01 1.047278046607971191e+00 4.855900108814239502e-01 -1.826740056276321411e-01 6.701699644327163696e-02 -4.002610146999359131e-01 3.283179998397827148e-01 -1.159688949584960938e+00 7.224000096321105957e-01 -7.581639885902404785e-01 2.154208898544311523e+00 7.676110267639160156e-01 5.464980006217956543e-01 -1.639409959316253662e-01 3.954370021820068359e-01 -3.467009961605072021e-01 1.595049947500228882e-01 -3.520559966564178467e-01 2.734290063381195068e-01 -2.283490896224975586e+00 -3.682389855384826660e-01 6.843420267105102539e-01 4.338789880275726318e-01 4.871520102024078369e-01 3.389610052108764648e-01 5.816550254821777344e-01 -3.722090125083923340e-01 1.540240049362182617e+00 7.835800051689147949e-01 -4.357469975948333740e-01 1.997659951448440552e-01 1.624120026826858521e-01 -1.637600064277648926e-01 2.997500076889991760e-02 1.767410039901733398e-01 3.839420080184936523e-01 6.931279897689819336e-01 -2.295349985361099243e-01 2.021940052509307861e-01 -5.637570023536682129e-01 1.148615956306457520e+00 2.047419995069503784e-01 5.925689935684204102e-01 -7.622489929199218750e-01 -1.672420054674148560e-01 8.440099954605102539e-01 -7.722489833831787109e-01 -5.757250189781188965e-01 -2.450399994850158691e-01 2.266030013561248779e-01 -1.021400019526481628e-01 -1.462019979953765869e-01 7.543200254440307617e-02 2.579529881477355957e-01 5.681120157241821289e-01 4.498200118541717529e-01 1.199628949165344238e+00 1.713178992271423340e+00 -1.176862001419067383e+00 -3.591769933700561523e-01 6.776170134544372559e-01 6.371200084686279297e-01 -4.831230044364929199e-01 -4.745759963989257812e-01 -6.920800358057022095e-02 -3.125320076942443848e-01 -1.732400059700012207e-01 3.972040116786956787e-01 -3.307709991931915283e-01 -1.084272027015686035e+00 4.558629989624023438e-01 -6.687849760055541992e-01 -1.746242046356201172e+00 1.615846037864685059e+00 -1.337960064411163330e-01 -1.520909965038299561e-01 4.604749977588653564e-01 -1.527529954910278320e-01 -2.800459861755371094e-01 -3.323310017585754395e-01 -3.513070046901702881e-01 1.219480037689208984e+00 6.521480083465576172e-01 -4.221790134906768799e-01 4.639959931373596191e-01 8.582590222358703613e-01 6.611400097608566284e-02 -3.865230083465576172e-01 1.997530013322830200e-01 -5.029199719429016113e-01 -4.897100105881690979e-02 2.720749974250793457e-01 4.158290028572082520e-01 -1.436355948448181152e+00 -5.491400137543678284e-02 8.368970155715942383e-01 3.838019967079162598e-01 -3.606410026550292969e-01 -1.161000039428472519e-02 8.344529867172241211e-01 -8.611779808998107910e-01 -2.464119940996170044e-01 -1.078599989414215088e-01 -4.905860126018524170e-01 5.472599864006042480e-01 -1.423780024051666260e-01 1.715490072965621948e-01 -2.198499999940395355e-02 -1.172742009162902832e+00 -1.206621050834655762e+00 -1.185616016387939453e+00 -1.250299960374832153e-01 1.255200058221817017e-01 -1.356899023056030273e+00 3.425750136375427246e-01 -8.572300076484680176e-01 -3.040080070495605469e-01 -5.035889744758605957e-01 -4.454230070114135742e-01 -1.306349933147430420e-01 -8.100900053977966309e-02 -8.661100268363952637e-02 -7.794100046157836914e-01 3.103480041027069092e-01 2.075680047273635864e-01 -3.351730108261108398e-01 -2.101110070943832397e-01 5.701529979705810547e-01 4.087310135364532471e-01 4.053379893302917480e-01 5.631000176072120667e-02 4.422309994697570801e-01 -2.534579932689666748e-01 8.116099983453750610e-02 6.169700026512145996e-01 -7.838640213012695312e-01 -2.977789938449859619e-01 -6.878899782896041870e-02 2.492450028657913208e-01 7.022089958190917969e-01 -3.233979940414428711e-01 6.556499749422073364e-02 2.577080130577087402e-01 1.833740025758743286e-01 9.787930250167846680e-01 -1.293069958686828613e+00 -4.494349956512451172e-01 1.935109943151473999e-01 1.512400060892105103e-01 -6.701189875602722168e-01 7.398699969053268433e-02 4.083299934864044189e-01 -1.850499957799911499e-02 -1.064319983124732971e-01 -3.255369961261749268e-01 -5.479239821434020996e-01 -1.306594014167785645e+00 9.173349738121032715e-01 -4.329600185155868530e-02 7.712999824434518814e-03 -9.073999710381031036e-03 9.850099682807922363e-02 -3.558030128479003906e-01 1.209670007228851318e-01 -1.212682008743286133e+00 8.770009875297546387e-01 -1.048920035362243652e+00 -1.307019948959350586e+00 -6.976100206375122070e-01 4.068800061941146851e-02 6.866409778594970703e-01 -2.034839987754821777e-01 2.066770046949386597e-01 -9.573700278997421265e-02 -4.332430064678192139e-01 1.936649978160858154e-01 4.863219857215881348e-01 4.357320070266723633e-01 -3.114219903945922852e-01 2.540500089526176453e-02 -5.163799971342086792e-02 7.845450043678283691e-01 4.529640078544616699e-01 -6.675810217857360840e-01 8.673859834671020508e-01 6.512709856033325195e-01 3.871960043907165527e-01 -3.667129874229431152e-01 -3.125579953193664551e-01 -2.858769893646240234e-01 -1.654876947402954102e+00 3.425570130348205566e-01 -4.072180092334747314e-01 -1.045443058013916016e+00 -1.270957946777343750e+00 -1.095134973526000977e+00 5.250610113143920898e-01 -5.618839859962463379e-01 1.687989979982376099e-01 -7.737979888916015625e-01 6.083499789237976074e-01 -4.167119860649108887e-01 -1.103190034627914429e-01 -4.032239913940429688e-01 -3.306199982762336731e-02 1.617899909615516663e-02 -1.145820021629333496e-01 3.816999960690736771e-03 -2.610180079936981201e-01 1.069475054740905762e+00 1.048959016799926758e+00 -6.444219946861267090e-01 -1.433328986167907715e+00 6.547809839248657227e-01 -1.178516983985900879e+00 1.430886983871459961e+00 1.142129972577095032e-01 3.248249888420104980e-01 1.780712962150573730e+00 7.596020102500915527e-01 -1.728519946336746216e-01 4.701760113239288330e-01 3.410789966583251953e-01 -8.972830176353454590e-01 8.873289823532104492e-01 -7.095019817352294922e-01 1.796019971370697021e-01 -1.002150028944015503e-01 1.053485035896301270e+00 -4.468030035495758057e-01 -1.601130068302154541e-01 -1.494330018758773804e-01 1.283499971032142639e-02 2.511720061302185059e-01 4.095950126647949219e-01 -5.292600020766258240e-02 1.052680015563964844e-01 9.148920178413391113e-01 9.372199773788452148e-01 -2.558999955654144287e-01 1.881570070981979370e-01 -1.597839951515197754e+00 3.074919879436492920e-01 -2.705659866333007812e-01 1.848479956388473511e-01 -5.945249795913696289e-01 -1.369735956192016602e+00 -5.652000196278095245e-03 -9.288520216941833496e-01 -1.189310029149055481e-01 5.422739982604980469e-01 -9.482079744338989258e-01 6.683000177145004272e-02 5.742400288581848145e-01 -2.286448001861572266e+00 -1.291120052337646484e+00 -1.383241057395935059e+00 -9.441100060939788818e-02 -3.588309884071350098e-01 1.511709988117218018e-01 -8.003309965133666992e-01 -4.037899896502494812e-02 -2.351019978523254395e-01 2.639540135860443115e-01 2.475400082767009735e-02 1.211090013384819031e-01 5.353429913520812988e-01 -2.048539966344833374e-01 -3.271369934082031250e-01 -7.959000021219253540e-02 2.780959904193878174e-01 3.796890079975128174e-01 1.033460974693298340e+00 5.497400164604187012e-01 -1.010045051574707031e+00 -1.085250005125999451e-01 7.953400164842605591e-02 -2.324959933757781982e-01 2.766480147838592529e-01 5.059799924492835999e-02 -4.256959855556488037e-01 -4.432849884033203125e-01 -9.812299907207489014e-02 3.667499870061874390e-02 4.971309900283813477e-01 3.492510020732879639e-01 -1.738390028476715088e-01 5.254229903221130371e-01 1.795441985130310059e+00 -4.499889910221099854e-01 8.753979802131652832e-01 2.122009992599487305e-01 -8.541290163993835449e-01 5.536839962005615234e-01 1.715489029884338379e+00 -4.492979943752288818e-01 -3.592709898948669434e-01 3.885099887847900391e-01 1.964389979839324951e-01 -3.808400034904479980e-02 1.196854948997497559e+00 -5.100870132446289062e-01 1.006335020065307617e+00 1.316979974508285522e-01 4.646699875593185425e-02 6.904619932174682617e-01 -5.541689991950988770e-01 7.955759763717651367e-01 -9.230399876832962036e-02 -1.398189961910247803e-01 -6.806780099868774414e-01 4.939340054988861084e-01 -4.299409985542297363e-01 -8.625630140304565430e-01 -2.960160076618194580e-01 -2.953830063343048096e-01 4.812250137329101562e-01 8.204299956560134888e-02 -4.375750124454498291e-01 -2.448289990425109863e-01 3.054809868335723877e-01 1.845764994621276855e+00 1.374057054519653320e+00 -1.015115022659301758e+00 3.104439973831176758e-01 -4.912540018558502197e-01 -2.262270003557205200e-01 7.410730123519897461e-01 5.534719824790954590e-01 -1.070011973381042480e+00 6.975799798965454102e-02 -1.129970028996467590e-01 3.669280111789703369e-01 1.861239969730377197e-01 6.533669829368591309e-01 -5.978869795799255371e-01 -2.989099919795989990e-02 -1.497399955987930298e-01 9.902799874544143677e-02 -6.826099753379821777e-02 -7.962530255317687988e-01 -1.029659986495971680e+00 9.036080241203308105e-01 -8.118439912796020508e-01 -5.994049906730651855e-01 2.087879925966262817e-01 -1.026460006833076477e-01 4.217039942741394043e-01 -1.184882998466491699e+00 1.279651045799255371e+00 6.101030111312866211e-01 8.181120157241821289e-01 -2.625609934329986572e-01 7.296100258827209473e-02 8.190800249576568604e-02 2.673110067844390869e-01 -6.045290231704711914e-01 -1.665686964988708496e+00 4.042130112648010254e-01 -1.051422953605651855e+00 -6.647760272026062012e-01 -4.703399911522865295e-02 -3.227759897708892822e-01 -1.426479965448379517e-01 -1.203880012035369873e-01