# LAMMPS data file written by OVITO Basic 3.10.1

6 atoms
2 atom types

0.0 25.4381160736 xlo xhi
0.0 25.4381160736 ylo yhi
0.0 25.4381160736 zlo zhi

Masses

1 15.9994  # O
2 1.00797  # H

Atoms  # atomic

1159 1 25.107538 17.463398 1.14533
1160 2 0.12558 17.518908 2.06316
1161 2 24.168838 17.435348 1.33431
1507 1 13.637148 15.858728 24.863738
1508 2 13.202368 16.488648 7.0e-04
1509 2 12.864238 15.324418 24.566038
