  9.1712624e-03   1.2096039e-02
 -4.3228839e-02   2.1823129e-02
 -9.7569777e-03   1.2578587e-02
  2.6534319e-02   5.4724929e-03
  1.0201885e-02   1.2495572e-02
  3.3853576e-02   1.3970612e-02
 -8.9932336e-03   1.9966248e-02
  2.5364237e-02   1.0618412e-02
  8.6457201e-04   1.8652583e-02
  1.1450862e-02   1.2118284e-02
 -5.6372162e-02   3.1154471e-02
  3.7035350e-02   2.5144953e-02
 -1.5504597e-03   1.8487656e-02
 -2.1437358e-02   3.1901256e-03
  3.7598822e-02   1.4112750e-02
 -2.4051555e-02   1.3365488e-02
  1.8900059e-02   1.6825631e-02
  8.7441467e-03   1.3979444e-02
 -4.7429573e-02   1.3606717e-02
  5.6642536e-02   1.6152786e-02
 -1.9467328e-02   1.7432347e-02
 -1.2762944e-01   1.1806793e-02
  2.5759628e-02   1.7411087e-02
  1.9499810e-02   2.0180488e-02
 -6.9391310e-02   1.7141698e-02
  6.8890430e-02   2.3241835e-02
 -1.4820488e-03   6.9675255e-03
 -1.3759745e-02   2.5649516e-02
  1.1891617e-02   2.6403228e-02
  6.5791681e-02   1.8746471e-02
  7.0631802e-02   9.4992312e-04
  7.1762457e-02   1.3138274e-02
 -9.9764002e-05   5.5719879e-03
 -1.0816277e-01   7.9159848e-03
  8.8493936e-02   6.3790274e-03
  3.1640004e-02   4.6960213e-03
 -1.0264108e-01   3.1324346e-02
 -7.6916315e-02   2.7913747e-03
 -1.8577087e-01   3.3221501e-03
 -6.4919181e-03   1.1536087e-02
 -8.5013412e-02   2.0955058e-03
  2.9913723e-02   2.0137634e-02
 -3.9245486e-02   1.9582866e-02
  6.3417908e-03   1.1043039e-02
 -9.7675929e-03   5.1587527e-03
 -1.1639301e-01   2.7783965e-03
  4.4719251e-03   6.2881690e-03
 -1.4213271e-01   2.1542426e-02
 -9.7431704e-02   8.0154473e-03
 -2.4654646e-03   1.7650204e-02
 -4.8260368e-02   1.4730254e-02
  4.8290608e-03   1.4648799e-02
  1.1584374e-02   1.5394162e-02
  1.2156481e-02   1.0111890e-02
  1.9060249e-02   7.5765452e-03
 -2.9804318e-03   1.0554739e-02
 -3.7653230e-02   1.9202229e-02
  1.3020504e-02   2.4555057e-02
 -2.7068779e-02   1.0516603e-02
 -4.8727497e-02   1.8248698e-02
  1.5845779e-02   1.6800804e-02
 -4.7544885e-02   1.8638130e-02
  1.1995956e-01   1.1715805e-02
 -1.7500889e-02   1.9408626e-02
 -1.0362903e-03   2.6443530e-02
  1.9038670e-02   2.7118396e-02
  2.9652881e-02   2.0497302e-02
  6.4000443e-02   2.3849461e-02
 -1.2645398e-02   5.0897445e-03
 -2.8749820e-02   7.2265412e-03
 -2.3149662e-02   1.8234069e-02
  1.6230540e-02   1.4608266e-02
 -6.2891915e-03   1.3287909e-02
 -2.3445873e-02   8.9079048e-03
  7.2571829e-02   1.0936332e-02
 -1.0314859e-01   1.2436766e-02
  1.0133653e-02   8.3490256e-03
  5.4615658e-02   2.6760612e-02
 -1.2310378e-01   6.7430479e-03
  1.3219678e-01   7.3439153e-03
 -3.4646332e-02   1.4223698e-02
  3.5969585e-02   2.0591879e-02
 -3.2442711e-02   1.9894267e-02
  1.0455410e-02   1.7325748e-02
  4.5109641e-02   7.2993492e-03
 -3.4173593e-02   3.1616580e-02
 -1.2982239e-02   1.9302564e-02
 -4.6237376e-02   1.5008328e-02
 -8.0979325e-02   2.6378959e-02
  2.8876066e-02   2.1035695e-02
  4.0649553e-04   9.2829540e-03
 -8.6967118e-02   5.9876894e-03
 -5.8026280e-02   1.5463624e-02
 -6.3989468e-02   1.0087804e-02
 -1.3686295e-02   2.2387393e-02
 -3.6591094e-02   1.5802635e-02
  8.6856363e-03   2.3897365e-02
 -6.4881444e-02   1.8868607e-02
 -4.5686685e-02   2.4915688e-02
 -2.0913871e-03   2.1903379e-02
  6.1697774e-03   9.8635107e-03
 -5.3175152e-03   3.1817894e-02
 -4.4859227e-02   1.3460301e-02
 -3.6188874e-02   9.8051289e-03
  3.3572298e-02   8.0492841e-03
 -9.6556850e-02   4.8122816e-03
 -3.0237118e-02   1.7797116e-02
  2.5894770e-02   1.9112257e-02
  3.6649618e-02   1.2411170e-02
 -6.1408460e-02   1.9360548e-02
  5.3215912e-03   4.7764597e-03
 -8.4617799e-03   1.0699603e-02
 -1.0087412e-02   1.7503936e-02
 -2.1203581e-02   2.7301747e-02
 -2.6841948e-02   2.2835102e-02
  3.1028841e-02   1.2762471e-02
  3.6405854e-02   1.6049055e-02
 -3.8743544e-02   1.6376313e-02
  5.4866336e-02   1.3742724e-02
  1.1758308e-02   1.4269004e-02
  3.0047188e-03   9.5927250e-03
 -2.6503386e-02   1.7461400e-02
 -4.8698299e-03   1.7482862e-02
 -2.5012948e-02   6.2421081e-03
  7.8618042e-02   1.9599637e-02
 -4.3106717e-03   1.2931582e-02
  4.6029212e-03   1.0078584e-02
  1.9673072e-02   2.3081303e-02
  4.7935333e-02   1.7003337e-02
  3.9938949e-02   2.9045030e-02
  3.3107568e-02   1.1072240e-02
  1.0428150e-03   9.1173155e-03
 -3.4407601e-02   1.3258476e-02
  2.8026744e-03   1.9109199e-02
  3.8444104e-03   1.3000461e-02
 -2.2312242e-03   9.9587590e-03
 -1.9214865e-02   2.0730477e-02
 -6.4166738e-03   3.2251291e-02
 -8.7784333e-03   9.8397844e-03
  2.9639124e-03   1.8379951e-02
 -4.0575171e-01   7.6178031e-04
 -2.3395579e-02   1.0113345e-02
 -9.2030324e-02   1.6388807e-02
  1.9646537e-02   1.9164322e-02
  1.7268086e-02   1.1528834e-02
 -3.0809423e-02   8.0639357e-03
 -6.1617117e-02   3.8191855e-02
 -3.6898598e-02   4.1940981e-03
 -1.9397443e-02   2.1424854e-02
 -1.5064284e-01   1.7200310e-02
  1.9683162e-02   1.9109230e-02
  7.9622269e-02   1.6887540e-02
 -2.4756294e-02   6.8355431e-03
  2.1691538e-02   9.0421066e-03
 -7.3787146e-03   5.3788368e-03
 -4.7639650e-03   2.4618359e-02
 -2.5675416e-02   1.9429026e-02
  1.9858697e-02   1.2301698e-02
  2.3540821e-02   1.8506736e-02
 -1.1175869e-03   3.3201210e-02
  6.9774018e-04   1.4797429e-02
 -2.3261206e-02   1.2050427e-02
 -1.6155368e-02   8.5752159e-03
  3.2612681e-02   2.1332951e-02
  1.0290717e-03   1.7502395e-02
  8.2879543e-02   1.2192299e-02
 -6.0404749e-03   1.3224819e-02
 -1.3102053e-02   7.4350834e-03
  8.6367996e-03   1.5073859e-02
 -1.7366450e-02   3.1487718e-02
  3.0679433e-02   2.0326583e-02
  6.0903337e-03   1.0543955e-03
 -8.9217648e-03   6.4886170e-03
  2.8073534e-02   1.8716291e-02
 -1.8149424e-02   1.5910152e-02
  3.7005685e-02   1.5840514e-02
 -2.6920754e-03   4.2997161e-03
  1.1852824e-01   1.4318911e-02
 -2.2367271e-02   1.3624462e-02
  3.2989085e-01   1.4483039e-03
  1.7217955e-02   7.7312565e-03
 -1.0284050e-02   1.3302920e-02
 -2.7811693e-02   9.3195830e-03
  3.8997106e-02   1.0661079e-02
 -9.0477370e-02   6.0918792e-03
 -1.1577197e-01   8.5056154e-03
 -7.0965053e-03   1.4503171e-02
  4.9607540e-03   1.2943367e-02
  1.5124315e-01   7.0625823e-03
  1.2216363e-01   8.6606434e-03
  5.3058211e-03   1.1054739e-02
  3.2656784e-03   1.0625196e-02
 -1.9882273e-02   2.1529727e-02
  7.1930416e-02   1.6346339e-02
 -7.3112873e-04   6.8212021e-03
 -5.8453307e-02   1.0732000e-02
 -2.4606910e-02   1.5362147e-02
  3.3882216e-02   8.9194886e-03
 -1.0248165e-02   1.4836780e-02
  3.4164179e-02   4.7192816e-03
 -6.5687569e-03   1.9647283e-02
  2.8661694e-02   1.6972167e-02
 -6.1306148e-03   1.5209347e-02
 -1.9097781e-02   1.6390361e-02
 -3.9891973e-02   1.1857810e-02
  2.0203078e-02   2.1887412e-02
  3.3184838e-02   2.3552120e-02
  1.8050784e-02   1.9531265e-02
 -4.1130190e-03   6.1337794e-03
  3.8416241e-03   2.0761792e-02
  7.8403956e-01   2.9922188e-03
  6.3854712e-01   1.5108793e-03
  9.8033941e-01   2.2466630e-03
 -1.1658822e-01   1.6345943e-03
 -3.5737091e-01   1.2728305e-03
 -1.7881925e-03   4.5567611e-03
 -1.5919166e-02   9.5906835e-03
  3.4617223e-02   1.2719824e-02
  1.4097538e-03   6.6930647e-03
 -4.3151639e-02   8.8559799e-03
 -4.9561128e-01   6.8601673e-03
  9.9683115e-03   8.1839357e-03
 -5.9217233e-03   1.8602649e-02
 -1.3101801e-01   7.8241555e-03
 -1.0698703e-01   1.2201295e-02
  4.2338690e-01   6.5984204e-03
 -5.4106936e-02   4.3122713e-03
 -9.0348525e-03   1.5055413e-02
  2.1665590e-02   5.6073442e-03
 -1.9261472e-02   5.2833054e-03
 -5.0597735e-02   7.3960270e-03
 -9.9621033e-03   1.9516297e-02
 -1.9734129e-02   2.1928813e-02
 -8.4074971e-04   1.2061541e-02
  1.7004689e-02   1.5298596e-02
 -7.6714944e-04   2.2309422e-02
  4.7724936e-02   2.5993271e-02
 -2.8364630e-02   1.4850542e-02
 -7.2686709e-03   1.4437033e-02
  3.5064716e-03   1.8049285e-02
  9.5428014e-03   5.0220350e-03
  1.7919030e-02   2.2144128e-02
  9.0531066e-02   1.1729153e-02
  3.4932159e-02   1.8163746e-02
  1.3805853e-02   2.8594600e-02
 -1.3693032e-01   1.2325246e-02
  1.2586050e-03   3.1750221e-02
 -6.7124963e-03   1.8555654e-02
 -6.8016872e-02   1.2043077e-02
  1.6847178e-02   4.4955444e-03
  2.6621455e-03   6.8844086e-03
  6.8369624e-03   1.2976434e-02
 -1.1874480e-01   1.9637441e-02
 -8.1236111e-03   1.8014245e-02
  4.6661746e-02   1.9470951e-02
  1.7274121e-02   8.5290978e-03
  3.4092706e-02   2.6974546e-02
 -2.0449007e-02   1.4807365e-02
  9.1835335e-02   2.0829475e-02
  8.6918836e-03   8.1844283e-03
 -5.8895960e-03   1.2613981e-02
  4.0586632e-02   3.4116730e-02
 -8.3348453e-02   2.7701804e-02
 -5.1178942e-03   7.6155518e-03
 -2.6426932e-02   1.2926078e-02
  1.3815971e-02   2.9815469e-02
  2.2786558e-03   1.7947188e-02
  1.1648710e-02   1.7478734e-02
  2.6895732e-02   1.5097723e-02
  8.2334377e-02   1.0591610e-02
  3.0334699e-03   4.1077361e-03
 -1.8670920e-02   2.9572565e-03
 -1.8899886e-02   4.7276565e-03
  4.3513537e-03   2.7578091e-03
 -1.0765309e-03   6.4104605e-03
 -2.6460810e-02   1.0276878e-02
 -6.1112382e-02   3.4740295e-02
 -4.4426765e-02   1.7144699e-02
 -2.1776460e-02   1.0243075e-02
 -5.9895031e-02   1.0292688e-02
 -2.5411835e-01   6.9547221e-03
 -5.1659908e-02   7.9068439e-03
  2.3192158e-02   2.4475353e-02
 -1.5307595e-02   7.0595280e-03
 -3.7706885e-02   9.2857452e-03
 -5.8558565e-02   8.0284448e-03
  3.5002023e-02   1.8619189e-02
 -1.4687964e-03   7.3664999e-03
 -8.1312373e-02   5.4484545e-03
 -3.0705315e-01   6.2318249e-03
  3.4193397e-02   1.0664231e-02
  6.0297996e-02   1.3991331e-02
 -2.6163012e-02   4.9693240e-03
  4.1718166e-02   2.1052275e-02
 -4.7806561e-02   1.0938504e-02
  1.6021211e-02   8.4782178e-03
  2.6010241e-02   2.9658394e-02
  2.0782018e-02   1.9210126e-02
  6.3518509e-02   9.9980179e-03
  2.5522234e-02   1.1213758e-02
  3.8315732e-02   1.2583487e-02
  5.7038134e-03   7.5683040e-03
 -8.3272327e-03   8.7222634e-03
 -7.0966311e-02   3.3565462e-03
 -3.2239433e-02   1.4786755e-02
  1.4539653e-02   1.9641494e-02
  2.2976782e-02   2.4322331e-02
  1.1316314e-02   1.3943586e-02
  1.0497675e-02   1.9193055e-02
 -1.7999465e-02   4.4957926e-03
  2.9591078e-01   1.6863409e-02
 -9.7253785e-02   2.0671796e-02
  1.2352522e-02   8.6121093e-03
  3.0592134e-02   1.1007026e-02
  7.4629210e-02   2.2692434e-02
 -5.1776686e-04   2.0310087e-02
  7.6292599e-05   1.9200237e-02
  3.7572261e-02   2.0556174e-02
  4.6073976e-03   1.4869198e-02
  5.0541226e-02   1.8169526e-02
  6.6082820e-02   1.1590782e-02
 -2.7623788e-02   1.8621398e-02
  2.8118661e-02   1.8722290e-02
 -5.1976677e-02   1.2753336e-02
  2.8756494e-02   1.8355560e-02
 -3.6450941e-02   1.9889422e-02
 -9.6859392e-03   2.5335083e-02
  1.9775677e-02   5.5683265e-03
  4.5445776e-03   2.7431147e-02
  5.3167526e-02   1.3608973e-02
 -2.3484890e-01   8.8727456e-03
  1.7344216e-02   9.7471150e-03
 -6.9885782e-04   5.7280920e-03
 -2.2428004e-01   7.2059250e-03
  2.4810445e-01   4.2970139e-03
 -1.0838391e-03   4.8577837e-03
 -6.5518267e-02   1.6366040e-02
 -9.7833082e-02   1.1612900e-02
 -6.7942478e-02   5.4013268e-03
 -1.8964909e-03   1.5069580e-02
 -7.6208910e-04   7.2592413e-03
  1.4276301e-02   1.3661779e-02
  4.8709970e-02   1.5628710e-02
 -7.1476452e-02   5.7450696e-03
 -1.0243276e-03   1.0160153e-02
 -1.0853411e-01   1.4577447e-02
 -2.9597864e-02   1.2755340e-02
 -1.2386221e-02   2.3650317e-02
 -3.1549964e-02   2.2113543e-02
 -7.4573487e-02   1.7143538e-02
 -1.1055135e-02   9.4844382e-03
  1.8410435e-02   1.0416547e-02
  2.2269474e-01   2.5212546e-03
 -3.8275246e-02   1.2592970e-02
 -4.2932525e-02   2.2857204e-02
 -2.6791515e-02   8.6287018e-03
  7.0571169e-02   1.9228419e-02
  1.7527433e-02   5.1321853e-03
 -1.8228034e-02   1.7276952e-02
  4.8927154e-02   2.2483226e-02
 -1.5926187e-01   2.1389831e-02
  7.9820916e-02   1.0287354e-02
 -1.0268635e-02   1.5504383e-02
 -7.2529979e-02   1.4326988e-02
  3.4582034e-02   5.5864295e-03
  6.7070901e-02   2.0429965e-02
 -2.5984335e-05   2.8707707e-02
 -9.3135936e-03   2.0675905e-02
 -1.0324673e-03   1.5493586e-02
 -1.2363004e-01   1.8540468e-02
 -1.0289781e-02   1.1917844e-02
  8.7581072e-03   1.4206400e-02
  8.5190244e-02   1.8773386e-02
 -1.7937612e-02   2.2676276e-02
 -2.4070857e-02   2.1939734e-02
 -1.7708025e-03   1.4959819e-02
  6.8767361e-02   9.6540460e-03
 -2.9308029e-02   9.2818635e-03
 -3.7736438e-02   7.4526309e-03
 -1.5254133e-02   2.5891276e-02
 -4.3665349e-02   2.6369112e-02
 -5.6643980e-03   1.0656801e-02
 -4.5506293e-03   1.3822983e-02
 -2.4191760e-02   1.3738720e-02
  6.1021440e-02   1.6931670e-02
  3.0229947e-02   1.4499311e-02
 -4.7201838e-02   2.1341119e-02
  1.1781569e-01   3.1673197e-02
 -3.1517437e-03   1.7134059e-02
 -5.1988784e-02   2.8343124e-02
  1.1961938e-01   5.1306686e-03
 -2.0385817e-02   6.4407513e-03
  1.5978813e-02   5.2112262e-03
 -1.6628971e-02   6.9254958e-03
 -1.0581130e-01   2.3154209e-03
  3.5000488e-02   4.9437429e-03
  1.0592164e-01   7.1258009e-03
  2.9182650e-02   9.8008094e-03
  8.5486487e-02   3.5370865e-03
  3.3310360e-01   3.4121536e-03
  6.1803337e-02   1.0198046e-02
 -4.3146359e-03   1.1400146e-02
  3.1159235e-02   2.9111378e-02
  3.2752238e-02   7.6100696e-03
  4.3316558e-03   8.3523840e-03
 -9.7098380e-02   6.3358210e-03
  3.5076682e-02   3.6892865e-02
 -2.3011768e-02   1.9313129e-02
  8.3099544e-02   2.4019670e-02
  1.2428869e-01   6.8794922e-03
  2.1371655e-02   1.3939349e-02
  2.4964103e-02   1.5906971e-02
  1.3749835e-02   2.8478241e-02
 -4.1459598e-02   1.1742317e-02
  1.0104386e-01   1.4991825e-02
  1.1223481e-02   1.7701907e-02
 -9.7953063e-03   1.4046580e-02
  4.7802165e-02   1.8730974e-02
  3.8404640e-02   2.6415341e-02
  7.7793077e-03   1.4298405e-02
  3.5729477e-01   2.6830466e-04
 -4.4273376e-01   1.8859738e-03
  8.6747754e-01   9.0773334e-04
 -1.5364139e+00   6.2448770e-04
  7.9805177e-01   3.3088139e-04
  1.1781025e+00   4.1708122e-03
  1.0787932e-03   1.7970372e-02
  1.7816769e-02   1.4304443e-02
 -3.8344879e-02   5.3062174e-03
 -1.8336792e-02   6.6355094e-03
  4.3231178e-02   2.5237701e-03
 -1.3122994e-02   2.0346360e-02
 -3.8637120e-02   1.1901974e-02
  1.2604202e-02   1.7707312e-03
 -1.4537027e-02   6.8567651e-03
  1.6931210e-01   5.5532362e-03
 -5.8423262e-02   2.7475793e-02
 -2.5676314e-02   1.3372501e-02
 -6.8206109e-02   2.3038869e-03
  4.6952944e-02   2.2622747e-03
 -3.3608142e-01   5.6033465e-03
  1.3267028e-05   2.1735642e-02
 -1.1892048e-02   1.0135821e-02
  6.7154755e-04   2.4506731e-03
 -1.5157638e-02   1.1747122e-02
 -2.3568039e-01   7.5191427e-03
 -1.6942715e-02   2.1979831e-02
 -6.7756988e-02   1.5935108e-02
  7.7450432e-02   4.8249704e-03
 -1.0293117e-02   8.6082630e-03
  1.9833714e-02   1.4422629e-02
 -2.7366968e-02   1.3651127e-02
 -3.0884694e-04   1.2394914e-02
  2.0869272e-02   1.6851548e-02
 -1.0032119e-02   1.0789118e-02
  9.9642547e-03   4.3854178e-03
 -5.5860314e-03   1.7629489e-02
 -2.4308139e-02   1.1751171e-02
  3.3400707e-02   1.0340886e-02
 -1.8534939e-04   1.3874167e-02
 -1.6808314e-02   6.7368625e-03
  2.1326393e-02   1.1046902e-02
 -3.1529649e-03   2.9255187e-02
 -1.3514519e-02   1.2361670e-02
 -8.8062417e-03   7.9058381e-03
  6.7329243e-02   4.6827425e-03
 -1.0213136e-02   1.6442768e-02
  7.9838865e-02   1.3801239e-02
  1.2913089e-02   4.0566246e-03
 -6.1747762e-03   3.1186664e-02
  2.7660009e-02   2.2251146e-02
  5.2849352e-02   2.0124260e-02
  3.3171739e-02   1.4175049e-02
  4.2232972e-02   2.6863592e-02
 -2.5220811e-02   2.0133216e-02
 -2.4013524e-03   2.6014697e-02
  2.9275568e-02   2.3666017e-02
 -7.6797068e-02   3.2647081e-02
 -3.6952578e-02   2.2190003e-02
 -1.2337454e-01   3.1695914e-02
  1.7408114e-02   1.2848129e-02
 -6.2547444e-04   1.2471666e-02
  5.2450323e-03   1.1376852e-02
  1.6964396e-02   1.1251692e-02
  2.5627928e-02   1.7597887e-03
 -1.6047820e-02   1.4998259e-02
 -6.6446699e-02   2.9777387e-02
 -1.9086421e-02   6.2755817e-03
 -1.1185152e-02   1.3873509e-02
  1.5789274e-02   2.7304441e-02
  1.2654121e-01   3.3121407e-02
 -3.1862576e-02   1.3476634e-02
  2.5078092e-02   1.7147560e-02
  2.7947556e-02   1.5707262e-02
 -2.0541834e-02   2.1741739e-02
 -3.5192881e-02   1.4110801e-02
  1.4047480e-01   3.0576722e-03
 -7.0419014e-02   1.1509578e-02
  3.4327768e-02   1.2820623e-02
  1.4916697e-02   2.7993789e-02
 -9.0461355e-03   2.1571450e-02
 -3.0140972e-03   1.6136035e-02
 -5.3803816e-02   1.4988556e-02
  1.8759720e-02   2.1909444e-02
 -7.2800234e-02   1.2777342e-02
  1.7956337e-02   7.1503017e-03
 -8.8328794e-03   1.6630387e-02
  2.7938262e-02   1.5440786e-02
  5.4022320e-02   1.0334019e-02
  9.1207698e-03   1.1925545e-02
  1.1769587e-02   5.4736636e-03
 -3.2446913e-02   5.5455328e-03
  5.2267555e-02   5.4042204e-03
 -2.9065466e-01   8.5116979e-03
  3.1309091e-02   5.1221019e-03
 -3.2394391e-02   1.4196453e-02
 -4.2170908e-02   8.5203452e-03
  4.9168132e-02   1.5724732e-02
 -1.5416471e-03   1.7371647e-02
 -2.2750888e-02   7.1295770e-03
 -1.8442336e-02   4.7092009e-03
 -1.3775082e-02   2.3226567e-02
 -4.4320612e-03   1.9493591e-02
 -3.8024146e-02   9.2116641e-03
 -2.1802496e-02   1.3463324e-02
 -3.9023921e-02   1.3628353e-02
 -2.1675890e-02   4.0902328e-03
 -2.1074383e-02   1.5335334e-02
 -8.4051162e-02   1.3052787e-02
  1.5819941e-02   1.5616969e-02
  1.4574782e-02   1.2920550e-02
  1.6016537e-02   1.1512046e-02
 -9.7410055e-03   7.3222890e-03
  4.0269233e-02   8.1856372e-03
 -4.3533280e-02   1.1629052e-02
 -2.8745815e-02   2.5348919e-02
 -2.3647489e-02   1.4095737e-02
  3.6861725e-02   6.1027147e-03
  2.1034198e-02   1.8053994e-02
  9.1606351e-03   1.8880609e-02
  1.2573428e-01   4.4562854e-03
  5.1802263e-02   4.4226022e-03
  7.9503000e-02   1.3541300e-02
  3.5229757e-02   2.3558743e-02
 -8.4968545e-03   1.5096618e-02
 -2.2968775e-02   1.0868950e-02
 -5.0264087e-02   8.1444038e-03
  4.1767940e-02   1.5770853e-02
  5.7846131e-03   1.4847383e-02
 -5.8503258e-03   6.5200734e-03
 -8.3795227e-03   1.0816579e-02
 -7.2069522e-03   1.3345239e-02
  1.6771665e-02   6.0079205e-03
  2.3800388e-02   2.0182956e-02
 -1.4679340e-03   9.0103503e-03
  1.4164414e-01   2.4608973e-02
 -4.1284606e-02   1.1267906e-02
  3.5792671e-02   1.2722761e-02
 -9.0247393e-03   1.3867501e-02
 -4.2646136e-02   1.5050569e-02
 -7.6729901e-02   2.6175303e-02
  5.1888797e-02   1.2639571e-02
  1.4940984e-02   1.5285823e-02
 -4.2859528e-02   3.8851734e-02
 -9.7285196e-02   1.8433575e-02
  2.4554513e-02   3.0209910e-02
 -1.6896730e-02   1.7508850e-02
  8.4307715e-03   1.8578192e-02
  2.6852660e-02   1.0277034e-02
  4.4439252e-02   1.7969992e-02
 -2.7480904e-02   6.1961673e-03
  6.8993531e-02   7.8415284e-03
 -5.4911409e-02   4.7543976e-03
 -5.4623250e-02   3.5328299e-03
  2.4805617e-02   9.4450675e-03
 -1.1068442e-02   8.3037056e-03
 -1.3785229e-02   1.6108790e-02
  1.2430506e-01   8.4806131e-03
 -3.9257549e-02   1.3376072e-02
 -4.8200715e-02   1.1320313e-02
 -1.5812972e-01   5.8811670e-03
 -5.5590938e-03   2.0996327e-02
 -8.9108475e-02   8.5083330e-03
 -6.8024114e-02   8.7861344e-03
  2.2025634e-02   1.1978797e-02
 -3.1819895e-03   5.1957057e-03
  8.0344016e-03   1.9750275e-02
  1.6761268e-02   2.0949673e-02
 -6.4923428e-02   1.4038799e-02
 -1.0525054e-01   1.7097784e-02
 -9.2688717e-02   1.0656257e-03
 -2.2595409e-02   1.6843433e-02
 -6.5881319e-02   1.7553369e-02
  7.7458948e-04   2.4023993e-02
 -4.8362814e-02   8.5812323e-03
  6.5591492e-02   1.9820992e-02
  4.6023610e-03   1.0208547e-02
  2.6033537e-02   1.7144231e-02
 -1.1465958e-01   1.4738782e-02
 -6.3361390e-04   2.3393564e-02
 -1.7411885e-01   6.2485654e-03
 -1.0750479e-01   2.3398751e-02
  9.3045428e-02   1.0412659e-02
  2.2996001e-02   1.0408535e-02
  2.8792875e-02   4.4737845e-03
 -1.2362815e-02   6.4261537e-03
 -7.7759959e-02   3.2812320e-02
 -1.8872702e-02   1.0683250e-02
  2.4313789e-02   1.8589383e-02
 -2.8350390e-02   1.0123567e-02
 -5.2345131e-02   1.5865820e-02
  1.0624812e-02   1.6798766e-02
 -2.6862636e-02   1.1482476e-02
  1.7242666e-02   1.9482810e-02
 -4.2863231e-02   7.7978829e-03
  6.5601565e-02   1.6820136e-02
  3.5403061e-03   2.0657761e-02
  9.4608730e-03   1.5673237e-02
  4.1524608e-02   3.4080416e-02
 -5.9831240e-03   2.7257908e-02
 -1.5789622e-02   7.8679174e-03
  6.6937268e-02   5.9300028e-03
 -1.1400353e-02   2.4337228e-02
  6.5997429e-02   1.3108040e-02
 -6.5001770e-04   6.6270372e-03
  9.2299603e-02   4.8151035e-03
  8.8261943e-03   1.4823775e-02
  8.0198580e-03   2.7511174e-02
 -3.0811045e-02   2.0038635e-02
  1.9424466e-02   1.0208741e-02
 -3.6526825e-02   9.4068265e-03
  9.0494903e-04   1.4990448e-02
  6.9472462e-02   2.9346239e-02
  7.8654150e-03   1.6742393e-02
 -2.9519908e-02   1.0936850e-02
  7.2151355e-02   4.9967868e-03
  5.4336831e-02   1.4775187e-02
  6.8581462e-02   3.2035965e-02
 -1.4315714e-02   5.3014876e-03
  9.9390941e-03   1.8151231e-02
  2.9922009e-02   1.3556789e-02
 -2.8802592e-02   1.4169660e-02
  1.3928698e-02   7.3265703e-03
  1.8848645e-02   8.2837753e-03
  8.2163461e-02   2.5653187e-03
  8.3070859e-02   2.1451598e-02
  7.1669649e-03   1.6708627e-02
 -4.0263094e-02   1.2864088e-02
  1.0621158e-01   7.8485245e-03
  6.5271817e-02   1.4121940e-02
 -3.2385960e-02   2.4510289e-02
 -2.6591295e-02   2.8466962e-02
  3.9119637e-03   2.7939908e-02
  9.9272773e-02   1.4370227e-02
  2.0791661e-02   1.4822800e-02
 -2.7684946e-02   2.6420802e-02
  9.0197250e-03   1.7630864e-02
 -5.6579571e-02   2.5610605e-02
  1.1096112e-02   2.0553570e-02
  2.9581013e-01   2.6481361e-03
  3.6349844e-02   4.4570612e-03
 -5.2546214e-02   3.2827295e-03
 -1.1068660e-02   9.8322546e-03
 -2.6877981e-02   7.1102860e-03
 -2.5236925e-02   5.5386084e-03
 -1.6501524e-01   1.1719465e-02
  2.6004998e-02   1.4524234e-02
  3.6022063e-02   2.1167792e-02
  8.8813156e-02   1.1370427e-02
  4.4771773e-03   1.0340681e-02
 -2.9098956e-02   2.0154897e-02
  3.8843036e-02   2.3495557e-02
  6.8267122e-02   2.2424584e-02
 -3.4369640e-03   1.0658008e-02
 -9.0701068e-03   2.0469472e-02
  1.1590905e-02   1.7796081e-02
 -1.7187508e-03   1.6532434e-02
  1.0547655e-01   1.1784186e-02
  3.8535442e-02   1.7358994e-02
  9.0551451e-03   2.3927737e-02
  9.8597329e-06   1.3304871e-02
 -6.0850948e-02   2.0379340e-02
 -2.1500783e-02   1.7851256e-02
 -4.2558409e-02   2.1254070e-02
 -8.5593099e-03   1.6843488e-02
 -6.9056186e-03   8.9457054e-03
  2.5009492e-03   2.1357719e-02
  7.6376810e-03   2.9727031e-02
 -1.9531766e-02   1.6125754e-02
  5.9179275e-04   1.6819950e-02
 -3.8071537e-01   2.5381520e-03
 -1.1773244e-01   1.2757408e-02
 -9.9564560e-02   4.7539393e-03
 -1.6416946e-02   2.3572342e-03
  4.6848330e-01   2.2583825e-03
  5.2375947e-03   7.6863118e-03
 -1.2764001e-01   2.4563540e-02
  5.4745995e-02   1.3167541e-02
 -2.8793966e-02   4.0310137e-03
 -8.4169663e-02   1.0644588e-02
 -1.6931295e-02   6.5736575e-03
 -5.4035496e-02   1.5283237e-02
 -3.2580032e-03   1.4955781e-02
 -6.2818311e-02   1.1817785e-02
  5.7714399e-02   1.3267037e-02
 -1.0727102e-01   7.3631122e-03
  5.2690334e-03   9.4731981e-03
  9.7506441e-04   1.2041534e-02
 -1.5752734e-01   1.1290779e-02
 -2.0367488e-01   2.2915948e-02
  8.0091834e-02   6.7009665e-03
  1.1629669e-02   2.4783446e-02
  1.7733902e-02   2.1966286e-02
  3.9738327e-02   1.6417414e-02
 -6.7236550e-02   1.5714468e-02
  1.0471836e-02   8.0813570e-03
  1.0003018e-02   2.5158791e-02
  4.4174060e-02   1.6740395e-02
 -2.0384034e-03   1.1003892e-02
 -1.4459629e-01   1.6665166e-02
  1.2380859e-01   2.6864728e-02
 -4.7523361e-03   1.4771434e-02
  6.2838718e-02   2.2676198e-03
  5.6949701e-02   3.2722257e-02
 -1.0555792e-01   8.0679208e-03
 -1.2826271e-02   1.1154133e-02
  7.9222064e-04   1.8009951e-02
 -7.4030794e-02   2.1325072e-02
 -3.1692464e-02   1.4985769e-02
  1.9836925e-02   1.1983274e-02
  1.7090444e-02   2.5823342e-02
  2.7417772e-02   3.8904857e-02
  6.3650231e-03   2.9909626e-02
 -9.2249755e-03   1.3344647e-02
 -1.4638078e-02   3.4899324e-02
 -8.3650902e-02   1.6307302e-02
 -1.6528904e-02   1.4074316e-02
  9.6287370e-02   1.3806172e-02
 -9.2837075e-03   3.4730595e-02
 -1.3540934e-02   5.7273405e-03
 -1.2309641e-02   1.6362729e-02
  6.3538700e-02   2.3334650e-02
 -9.7727040e-03   1.2619331e-02
 -4.0693216e-02   2.2203304e-02
 -4.1072816e-02   5.4668393e-03
 -3.8256679e-02   1.2880247e-02
  2.1432430e-02   2.8463645e-02
  1.2821823e-02   3.9531565e-03
  1.2197467e-02   1.3265458e-02
 -2.9506212e-02   1.6668629e-02
 -5.6560779e-01   6.0516759e-04
  1.0412551e+00   1.4672881e-03
 -5.3718793e-01   2.6657613e-04
  8.5331863e-01   3.9647514e-04
 -1.1342705e+00   5.8715837e-04
  2.4956141e-01   2.7873362e-03
 -1.5221255e-02   2.0646179e-02
  3.0337658e-03   1.9926757e-02
 -2.2576241e-01   3.5597687e-03
 -1.3586766e-01   5.8279261e-03
 -2.2025472e-01   1.8364699e-03
 -2.5147504e-01   1.7147213e-02
  4.2105429e-03   1.9882416e-02
 -1.2675746e-01   3.2676824e-03
  8.7711979e-03   8.5981321e-03
 -5.7943370e-02   2.9356868e-03
  1.2150867e-02   4.3624835e-03
 -5.5980798e-02   1.2759770e-02
 -2.2812280e-01   4.1481983e-03
 -1.7903097e-01   2.7465499e-03
 -4.2749986e-01   3.3851096e-03
 -2.3281395e-02   7.1630622e-03
 -1.6230285e-01   1.5953388e-02
 -5.4938722e-01   5.7101110e-03
 -1.4762114e-01   1.0800867e-02
  6.5200917e-02   6.6025350e-03
 -2.5940094e-02   2.1520806e-02
  3.1185469e-01   3.4357128e-03
  1.6083030e-02   6.8355948e-03
 -1.4097200e-02   1.4809395e-02
  6.3554823e-01   5.0478562e-04
 -1.7298521e-02   3.8392309e-03
  4.9408841e-01   1.9707889e-03
 -6.4466858e-01   6.8591628e-04
  4.1904363e-01   1.9630473e-03
  5.4595292e-02   3.2584330e-03
 -4.3611154e-02   2.4610722e-02
 -5.1000975e-03   1.7342862e-02
  5.8087695e-01   4.4496013e-03
  4.3081492e-01   3.5549861e-03
  3.3078504e-01   2.1136180e-03
  1.7521024e-01   1.7518423e-02
  2.0645174e-01   6.7222705e-03
  2.1340307e-02   2.8646085e-03
  6.6833532e-01   4.8437510e-03
  2.6974079e-01   2.9288526e-03
 -2.1704665e-01   8.0198795e-03
  1.7932773e-01   3.3623783e-03
  3.9732039e-01   4.3922989e-03
  5.6127763e-01   4.8686853e-03
  5.7265576e-02   4.7152713e-03
  2.4897405e-03   1.1024247e-02
 -1.6362406e-01   1.7441317e-02
  1.1435375e-01   9.7973682e-03
  4.0643616e-03   7.5091021e-03
  9.4766831e-03   6.6195098e-03
 -3.6627834e-04   2.8649939e-02
  3.9908726e-02   1.6902952e-02
  6.3945730e-03   1.1750650e-02
 -8.0208354e-02   1.3647487e-02
  3.4263716e-03   7.1404818e-03
  2.6429169e-02   1.5712451e-02
  2.7212927e-02   1.4917053e-02
  2.3198687e-02   4.2716372e-03
 -1.2287480e-02   1.0701898e-02
  5.1753741e-02   2.2393949e-02
  3.6809433e-02   1.8608175e-02
  3.7563216e-02   1.3274043e-02
 -2.5837880e-02   9.3270754e-03
 -1.0162218e-01   1.6633481e-02
 -9.6590295e-03   1.5482583e-02
  1.1047784e-02   9.9978959e-03
 -9.9095772e-04   3.8839113e-02
  5.0902225e-02   3.6299720e-02
 -1.4781758e-02   1.1266799e-02
 -3.1653021e-02   1.9504221e-02
  7.7450541e-03   1.2857316e-02
 -2.7686661e-02   1.8434018e-02
  2.7351655e-04   1.4663854e-02
 -8.3779050e-03   6.1132619e-03
 -8.9106197e-03   1.8665301e-02
  1.3062415e-02   1.6495615e-02
 -5.0295768e-03   2.5987089e-02
 -8.1510559e-02   2.1091288e-02
  2.8540453e-02   1.7363327e-02
  1.9582001e-02   1.4010399e-02
  2.5456671e-02   2.7250515e-02
  5.6665320e-02   3.2842692e-02
 -1.4180555e-02   9.5147155e-03
  7.6470431e-03   1.4788358e-02
  4.7796652e-02   1.8402243e-02
 -1.4486726e-02   1.9441046e-02
  2.1160180e-02   4.3792892e-03
  3.2102436e-02   3.3517831e-03
 -1.1864445e-01   2.4133539e-02
 -1.7210646e-02   1.9778362e-02
  4.7069713e-02   1.1542576e-02
  4.9235240e-02   1.5122924e-02
  9.0163238e-02   2.5287099e-02
  2.2730771e-02   1.0696377e-02
  8.6586596e-03   1.5806202e-02
  8.5527031e-03   1.0663508e-02
  2.4600513e-03   1.1195287e-02
  6.9433950e-02   9.7388551e-03
 -3.5537504e-02   1.5999958e-02
 -5.1170000e-04   2.0200351e-02
  2.7097965e-02   8.5295327e-03
 -1.4508146e-02   2.1389360e-02
 -2.0677693e-02   2.2802070e-02
  1.5895534e-02   1.4370442e-02
  1.8899761e-02   1.1098432e-02
  1.3982918e-02   8.6506661e-03
 -2.3683496e-02   2.6623536e-02
  2.8749244e-02   3.5998169e-02
  1.5358368e-02   2.1703567e-02
 -1.0782862e-01   1.1340262e-02
 -1.3805390e-02   2.1468688e-02
 -4.4417210e-02   2.1291077e-02
 -3.4423381e-02   8.2366681e-03
  9.2115002e-03   1.4412485e-02
 -4.5199804e-03   1.8044339e-02
  5.7331240e-03   1.8438943e-02
  3.5142351e-02   1.5476701e-02
 -7.2305828e-02   9.4735352e-03
 -2.4431208e-03   4.2957454e-03
  1.0080625e-02   1.9543814e-02
  9.1305580e-03   3.0126289e-02
 -2.0594625e-03   1.1053853e-02
 -2.9368337e-02   1.9728407e-02
  2.5447872e-02   3.2506496e-02
 -7.0567377e-02   1.0527397e-02
  4.7626272e-03   1.4798735e-02
  2.6442332e-02   1.5255597e-02
 -3.0060358e-02   7.8048925e-03
 -3.3489410e-02   1.0627120e-02
  6.3991003e-02   1.4656954e-02
 -3.2267580e-03   8.1915157e-03
 -1.6036862e-01   9.2585273e-03
 -1.5524886e-02   5.2071149e-03
  3.3093717e-02   1.4662498e-02
  5.5974871e-02   5.1553408e-03
  7.1016960e-02   1.3160577e-02
 -9.6565865e-02   1.4120335e-02
 -7.1066096e-02   2.4677467e-02
 -2.0276675e-02   1.4976509e-02
 -1.3104387e-01   2.2386846e-03
 -1.1476607e-02   4.2302799e-03
 -1.7835910e-02   4.2921859e-03
  3.3519085e-02   1.1307873e-02
  8.8994801e-03   2.6592212e-02
  1.4180293e-02   1.8516943e-02
 -2.4376214e-02   1.6230434e-02
 -6.7694136e-03   3.3022586e-02
  1.3185530e-02   1.7904832e-03
  5.4865740e-02   1.2032352e-02
  6.4765245e-02   1.6561739e-02
 -1.2116536e-02   1.1841556e-02
  1.3606228e+00   1.9004657e-03
  1.5886692e-02   1.2201356e-02
 -2.9171008e-04   9.3905618e-03
 -1.8598543e-02   2.1864774e-02
  1.4876095e-02   1.3267440e-02
  6.0272876e-02   1.7417999e-02
  9.2776828e-03   3.1201964e-02
  2.5372785e-01   2.1487419e-03
  1.2407958e-03   7.1585532e-03
  2.6787084e-02   1.8368067e-02
 -1.2078087e-01   1.4856494e-02
  7.1614578e-02   1.0406134e-02
 -4.7855731e-03   1.4964112e-02
 -9.4567742e-03   9.2679569e-03
 -4.2914510e-02   9.7729778e-03
  5.9674706e-02   5.8619389e-03
  6.5147150e-03   5.8114640e-03
  2.9872667e-02   1.2583843e-02
  4.7535768e-01   1.7141720e-03
 -2.3092964e-01   3.0121678e-03
  3.5247041e-03   3.0477112e-02
  6.9779575e-02   2.4810828e-02
 -1.1248154e-01   2.9903034e-02
 -2.9823793e-02   5.1711896e-03
 -1.3084035e-01   2.2139424e-03
  8.9068683e-03   5.2312440e-03
 -2.8692160e-02   5.9863725e-03
  3.4073003e-02   4.3514487e-03
  1.8956583e-02   4.8291669e-04
  7.5899042e-02   2.1729295e-03