 -6.7582637e-01   1.1451641e-01
  6.7773300e-01   1.6690488e-01
  1.6409048e+00   1.9764032e-02
 -1.2040441e-01   1.1794019e-01
  6.9937718e-01   6.8767399e-02
 -1.0518887e-01   6.2918782e-02
 -4.2795512e-01   4.2866673e-02
 -1.5462634e-01   1.6231315e-01
 -6.7388970e-01   7.4274138e-02
 -1.7564428e-01   1.5643468e-01
  3.7958464e-01   1.1764840e-01
  2.3602861e-01   8.1060149e-02
 -3.4973064e-01   1.1046173e-01
  1.3829727e+00   3.1254061e-02
 -9.4895267e-01   2.0694734e-01
  1.2595321e+00   1.0224498e-01
  1.4949237e+00   9.1168113e-02
 -4.9664870e-01   1.5393019e-01
 -1.7404769e-01   5.6900922e-02
  1.1545670e+00   7.5108461e-02
  9.8528251e-02   1.7048079e-01
  2.3815390e-01   1.3152324e-01
 -9.8153964e-02   2.0424773e-01
  2.4863139e-01   4.2627417e-02
 -1.6203995e+00   2.4621308e-01
 -3.8529378e-01   1.8258092e-01
  2.8491575e-01   1.0091577e-01
  6.1689492e-02   1.1441886e-01
 -9.6682715e-01   1.1854208e-01
 -6.6374421e-01   1.4592160e-01
  1.0425901e+00   1.1146071e-01
 -2.6164424e+00   8.2758114e-02
  3.7430337e-01   9.7217649e-02
  5.3923184e-01   2.2759955e-01
  1.7026395e-01   7.1451992e-02
  1.7482978e-01   1.4484297e-01
 -2.4777846e-01   1.1704499e-01
 -6.5162075e-01   7.3890254e-02
 -4.1754249e-02   1.5580083e-01
 -2.5293234e-01   7.7533558e-02
 -3.0799696e-01   1.0152041e-01
 -8.4965539e-01   1.4687775e-01
  6.9588846e-01   6.2387325e-02
 -4.0301353e-01   1.3884282e-01
 -2.4669644e-01   1.3948996e-01
  4.4007009e-01   2.4789348e-01
  4.0327194e-01   1.3173783e-01
  2.0424531e-01   1.5582789e-01
  2.7335691e-01   4.6010066e-02
 -1.5156190e+00   1.2691207e-01
  1.2355647e-02   2.2639860e-01
  4.3271074e-01   9.4465047e-02
 -1.0465965e+00   8.1731193e-02
 -6.2857503e-01   3.9354440e-02
 -5.7818317e-01   1.1725350e-01
  6.2006098e-01   3.5735648e-02
  4.4128601e-02   8.6878769e-02
 -2.2513357e-01   1.1003590e-01
  5.5260183e-03   7.4594282e-02
  1.9015143e+00   2.1719944e-02
  6.4891470e-03   7.3881119e-02
  1.7204266e-02   9.0889990e-02
 -1.8751633e+00   9.7800389e-02
  4.6350366e-01   1.7318130e-01
  9.3125767e-01   8.2053758e-02
  9.9922735e-03   1.5015690e-01
 -6.2171280e-01   3.8766369e-02
  1.1260369e+00   3.7757520e-02
  9.2180651e-01   6.2792525e-02
  1.6038837e+00   2.4722666e-02
 -3.4856218e-01   8.4680915e-02
 -1.5061882e+00   8.5608721e-02
  9.2520878e-02   9.9783592e-02
 -1.4039818e+00   1.5391979e-01
 -1.6828404e-01   6.2760279e-02
 -1.0936950e+00   1.0362606e-01
  2.4687657e-01   3.1262672e-01
  2.3061098e-01   1.2516735e-01
  1.2438838e+00   4.5600966e-02
  6.6255456e-01   1.4252990e-01
 -3.1449825e-01   9.2075467e-02
  9.0942746e-01   1.9766942e-01
 -1.1980635e-02   3.0448481e-02
 -1.3371760e-01   2.6193953e-01
  1.4033159e-02   1.8998359e-01
 -8.6108691e-01   5.0330222e-02
 -1.3803129e+00   6.9323607e-02
  1.1038009e+00   7.4395575e-02
  2.6566023e-01   6.3172124e-02
 -3.9974138e-02   6.8128265e-02
 -7.9291463e-01   4.7382373e-02
  4.4504383e-01   2.7458398e-02
  1.4870361e+00   4.3915622e-02
  5.7870448e-01   3.8660828e-02
 -3.4481469e-01   1.2764057e-02
 -4.4253352e-01   5.6957409e-02
 -4.5303687e-01   5.4747399e-02
  7.5930631e-01   2.9287243e-01
  9.5470881e-01   5.8663845e-02
  3.5446852e-01   2.8482911e-01
  9.6973324e-01   5.9977461e-02
 -5.1621419e-01   1.1643393e-01
 -1.1753233e-01   2.3504087e-01
  1.2387817e+00   5.0952721e-02
 -2.1606479e+00   4.9278863e-02
 -5.2767355e-02   1.1968399e-01
 -6.6580468e-01   1.2890279e-01
 -5.0468731e-01   1.5213324e-01
 -1.2928544e-01   5.4148916e-02
 -3.8144195e-01   6.6567332e-02
  1.4468062e-01   9.2636287e-02
 -2.0957253e+00   4.8052818e-02
 -6.0783796e-02   1.6678436e-01
  2.0802877e+00   8.0018155e-02
 -3.3682087e-01   1.5647853e-02
  1.1830861e-01   6.2191546e-02
  4.8257574e-02   1.0582878e-01
  3.0876669e-01   2.4197672e-01
  6.3884264e-01   1.2648176e-01
  1.6902040e-01   3.1665560e-02
 -2.7200272e+00   6.2720038e-02
 -1.0162175e+00   2.3168831e-01
  1.6012903e+00   2.1944928e-01
 -1.4316046e+00   2.8862096e-02
 -1.5736758e+00   7.2597116e-02
 -5.4150921e-01   1.1349183e-01
 -1.1877328e-01   1.4959078e-01
 -5.3554660e-01   5.2765828e-02
 -1.1318525e-01   3.7416767e-02
 -8.3643067e-01   1.5745811e-01
  9.1317880e-01   1.3591450e-01
  5.6980717e-01   4.2627625e-02
  1.4954241e-02   1.2469108e-01
  1.4906856e-01   1.4131640e-01
  1.1849915e+00   5.9856951e-02
 -9.6982467e-01   1.0574929e-01
  2.5373346e-01   1.8875568e-01
  3.4918159e-01   6.7324243e-02
  1.3643241e-02   3.6728874e-02
  7.5589031e-02   2.7896050e-01
  5.9831423e-01   2.3486051e-01
 -3.8483742e-01   9.2750050e-02
 -1.9188122e-01   8.5945651e-02
 -1.1070749e-01   1.4229998e-01
  1.4488420e-01   3.1968098e-02
  2.3491935e-01   1.9547096e-01
 -5.1583601e-03   9.2577882e-02
 -1.4579890e+00   1.0017599e-01
 -7.9126731e-02   7.0763245e-02
 -2.0851165e-01   1.1503705e-01
 -1.2394261e+00   1.6304180e-02
 -1.1638138e+00   2.0063600e-02
 -4.6191326e-01   4.6289578e-02
 -2.6707262e-01   3.5972517e-02
 -6.8455029e-01   8.4848953e-03
  7.7496237e-01   1.0217243e-01
  7.5715214e-01   1.0621537e-01
  1.0924672e-01   5.8037605e-02
  1.1947729e-01   2.3245178e-01
 -1.8936606e-01   1.3058642e-01
  7.0381165e-03   1.4058700e-01
 -4.6941718e-01   1.1948434e-01
  5.5728491e-02   7.5407431e-02
 -4.3289322e-01   3.0927733e-02
 -3.9342213e-01   7.3678493e-02
  8.8472867e-01   1.7944075e-01
 -4.9099877e-02   2.3019642e-01
 -4.9231318e-01   5.2661162e-02
 -3.0394027e-02   6.3571207e-02
 -6.8717301e-02   1.6721019e-01
  5.0986063e-01   7.5887211e-02
 -1.9672082e-01   7.4674144e-02
  7.2847590e-02   1.0669249e-01
  2.2937896e-02   1.6217136e-01
 -3.6561805e-01   2.4691872e-02
 -1.7365961e-01   8.5187286e-02
 -6.3680542e-01   1.2744065e-01
 -6.1182857e-01   7.2966650e-02
  6.3064831e-01   5.0660398e-02
  1.2338763e-01   3.2501258e-02
  4.0071872e-01   7.8754872e-02
  8.4256518e-01   1.5396713e-01
  2.4601486e+00   6.4076602e-02
  3.3572748e-01   7.4606404e-02
  2.0483758e+00   4.4618424e-02
 -1.5675493e+00   1.6993637e-01
 -1.3665164e+00   1.9990680e-01
 -1.0819612e-01   1.2850274e-01
  2.0316465e+00   6.4634584e-02
 -2.0539059e-01   6.5094121e-02
 -4.1720691e-01   4.0434282e-02
 -8.1148726e-01   4.5155205e-02
  3.4212652e-01   1.4197411e-01
 -3.1812304e-01   7.5153522e-02
 -5.7090151e-01   8.6644076e-02
 -7.1308339e-01   2.1509914e-01
  2.6000065e-01   6.8916477e-02
  3.9938387e-01   1.2738608e-01
  2.7017224e-01   1.1980371e-01
  4.3951333e-01   7.2459526e-02
  1.0912787e+00   9.6011631e-02
 -9.3752944e-01   5.3985968e-02
  1.8070492e+00   8.2157187e-02
 -9.6596882e-02   1.6857903e-01
 -1.6704911e-01   1.4642055e-01
 -9.7344398e-01   1.1198182e-01
  1.6110887e-01   1.4302395e-01
  1.2896751e+00   2.1755140e-02
  5.3913897e-01   2.6077273e-01
  3.9738649e-01   2.3202406e-02
 -4.3989313e-01   1.3834238e-03
  3.6438203e-01   1.5897958e-03
  1.3290803e+00   3.2248644e-03
  2.4888134e-01   3.4135033e-03
  1.5430171e-02   4.2086971e-04
  8.0671825e-02   1.7249541e-02
 -7.6575316e-02   3.2388661e-02
 -8.5123968e-01   8.2773529e-02
  6.1133838e-01   1.3689099e-02
  1.3218937e+00   2.2484703e-02
 -8.4314331e-02   3.2875538e-02
  7.9374474e-01   3.4391146e-02
  2.3501763e-02   6.8379357e-02
  8.1806797e-01   1.8699078e-02
  7.4059868e-01   2.2965677e-02
 -6.2900668e-01   1.7141355e-02
 -8.0841184e-01   4.2078603e-02
  2.7614779e+00   1.5336276e-02
  1.7495821e-01   9.5900418e-03
  1.2577778e+00   2.6145741e-02
 -8.1059706e-01   4.6492092e-02
 -1.5329665e+00   6.5789185e-02
  1.6357262e-01   1.0272669e-01
  1.8182303e-01   2.6434772e-02
 -9.2117184e-01   4.2363346e-02
 -5.8635843e-01   1.3847700e-01
 -1.6704978e-01   1.1903133e-01
 -1.9591929e-01   2.0818739e-01
  4.5419621e-01   3.7847325e-02
  2.7468245e-02   8.1394598e-02
 -3.6236256e-01   9.5077455e-02
 -3.1037694e-01   1.6793720e-02
  1.2656716e-01   1.9907136e-01
  1.4276946e+00   1.6308539e-01
  1.0118375e+00   4.1380916e-02
 -4.4112784e-01   7.7893689e-02
  2.4175256e-01   2.3007986e-01
  3.7320399e-01   1.1156460e-01
  1.0626788e+00   4.3719687e-02
 -6.9047135e-01   1.1791029e-01
 -5.3167826e-01   3.8599122e-02
 -1.9302189e-01   1.3752685e-01
  5.4594105e-01   1.0767245e-01
 -1.2612182e+00   5.9195872e-02
 -5.1220024e-01   1.0084406e-01
 -3.2132661e-01   9.0225369e-02
  3.3610663e-01   7.8295037e-02
 -7.1181756e-01   1.6725318e-01
 -8.2676582e-02   1.3732432e-01
 -3.4271315e-01   9.4089411e-02
 -6.3059635e-02   2.3113802e-02
 -1.5599380e-01   3.9502874e-02
 -1.9309612e-01   3.0322291e-02
 -1.2422019e+00   9.3959048e-02
  2.0222887e-01   9.9231631e-02
 -3.6407578e-01   3.8508214e-02
  8.3665842e-01   1.1463173e-01
 -2.1678504e-01   7.6727144e-02
  7.5497603e-01   1.1756315e-01
  2.2356997e-01   2.1131481e-01
  2.1942547e-01   1.0220710e-01
  8.3960378e-01   1.5560099e-01
 -3.9730489e-01   1.2887795e-01
 -1.8287945e-01   7.4968979e-02
 -3.5992205e-01   6.4058803e-02
 -1.9230173e+00   5.9743412e-02
  3.7096342e-01   1.8241498e-01
  2.0091139e-01   1.3908559e-01
 -2.9444560e-01   7.4260570e-02
  4.6569899e-01   6.0575325e-02
 -5.8366156e-01   7.7059334e-03
 -3.9406207e-01   4.3970197e-02
 -9.4096684e-01   3.9056398e-02
 -5.8842373e-01   1.3366410e-01
  1.1080952e+00   8.9775272e-02
 -1.6952112e-01   1.9851032e-01
  2.1223165e-01   1.6499610e-01
 -2.9036641e-01   3.3456647e-01
 -3.5479677e-01   4.7479156e-02
 -1.1991011e+00   2.9420160e-02
  6.1163396e-01   1.4795591e-01
 -1.7040795e-01   9.8731220e-02
  1.5082313e-01   2.4092910e-01
 -1.5342331e-01   1.4657028e-01
  3.0310890e-01   4.8224747e-02
  4.0664271e-01   9.7867168e-02
 -1.9552450e-01   1.1413527e-01
  5.8632147e-01   2.4901161e-01
  1.8368590e+00   5.8743268e-02
  6.7358875e-01   1.6057786e-01
 -3.1380102e-01   5.9433304e-02
 -8.3709413e-01   2.2415952e-01
 -1.3565327e+00   3.7995007e-02
 -7.1466696e-01   3.0016899e-02
  6.1081225e-01   7.7956833e-02
  3.4368595e-01   3.7293393e-02
  1.3070968e+00   6.0641959e-02
 -1.5568273e+00   3.4587480e-02
 -5.8767170e-01   7.9370625e-02
 -8.7979203e-01   8.1207007e-02
 -1.3756336e-01   1.0608215e-01
 -6.6239184e-01   3.0538291e-01
 -2.3118846e+00   1.0287140e-01
 -5.8178699e-01   1.7134544e-01
 -8.7788689e-01   6.5402508e-02
  3.8400543e-01   1.4354512e-01
  6.2500018e-01   7.4098803e-02
  5.6999266e-01   1.1582141e-01
 -3.4462985e-01   1.0424431e-01
 -2.2730985e+00   6.5570086e-02
 -6.5839477e-02   1.0677362e-01
  3.9892456e-01   4.7780883e-02
 -3.3987829e-01   1.1307299e-01
  7.6682848e-01   8.7011881e-02
  1.1572456e-01   2.7989259e-02
  4.5431563e-01   5.5972435e-02
 -8.3648491e-01   9.2829600e-02
  3.8720299e-02   1.1704108e-01
 -1.2590921e-01   6.1143044e-02
  6.7358422e-01   1.3354059e-01
  7.3200428e-01   3.0705433e-03
 -5.1959705e-01   1.9428775e-03
 -4.2279026e-01   3.2514094e-03
 -2.6895806e-01   4.8673013e-03
  7.8041427e-02   9.8094391e-04
 -1.7821148e-01   2.6471885e-02
  1.4899935e+00   1.3765728e-02
 -1.2347174e+00   3.8191676e-02
 -1.7325293e+00   1.4841531e-02
  1.3972124e+00   2.2745959e-02
  2.6793451e+00   2.1646231e-02
 -5.4999626e-01   5.0138384e-02
  1.5776826e-01   8.3229892e-02
  8.1383193e-01   2.2143956e-02
  8.4646684e-01   3.6941860e-02
  9.0139800e-01   2.1434981e-02
 -2.5552945e+00   1.2037802e-01
 -6.8228424e-01   1.2584290e-01
  1.6424260e+00   1.5674591e-02
  4.0121466e-01   2.5458539e-02
  7.2971636e-01   4.4048738e-02
 -2.4505515e-01   4.7007479e-02
  1.8931253e-01   1.9469242e-01
  2.4123476e+00   3.7444938e-02
 -2.4999792e-02   2.9790692e-02
  1.1732488e+00   7.4238457e-02
  3.0368891e-01   1.0357170e-01
 -1.0613259e+00   1.2395904e-01
 -1.9067039e-01   6.7676432e-02
 -9.7047001e-01   7.0795491e-02
  9.3462050e-02   9.6688353e-02
 -7.6244809e-03   6.9318809e-02
  5.2647382e-01   5.5023674e-02
 -7.8686959e-01   5.1732752e-02
  1.3051769e+00   3.4207523e-02
  1.2297655e+00   9.7277969e-02
 -6.5571517e-01   3.2992043e-02
 -4.9669695e-01   1.1782033e-01
 -3.9782032e-01   9.9570833e-02
 -5.5409759e-01   7.2875261e-02
 -1.0629241e-02   2.2826726e-02
  2.3513809e-02   2.2430779e-01
 -9.4523519e-02   2.2299758e-01
  1.5952988e-01   3.2348465e-02
  1.6487329e-01   5.6095459e-02
  6.3828814e-01   8.1859767e-02
 -3.2820731e-01   1.9056776e-01
 -2.2188017e-01   6.8597011e-02
 -1.0055772e+00   3.2579720e-02
  1.0305455e-01   2.0730029e-01
 -5.0641513e-01   5.2575689e-02
  2.6161510e-01   1.9144151e-01
  4.2699778e-01   5.5768326e-02
 -2.3795098e-01   2.3131919e-01
 -1.5542968e-01   7.1825184e-02
  2.1858381e-01   5.0348096e-02
 -1.0981783e+00   7.7875480e-02
 -4.3823743e-01   8.0325879e-02
  5.7198346e-01   5.4051038e-02
  1.4074727e+00   1.2046350e-01
 -3.9512110e-01   1.1196838e-01
  1.0412039e+00   6.1627768e-02
  4.0339712e-02   1.3480462e-01
 -9.3375690e-02   1.0370678e-01
 -1.6868054e+00   9.6795768e-02
 -6.3913238e-01   6.3590400e-02
 -3.7349406e-01   6.8572462e-02
 -1.2539789e-01   2.3629704e-01
  4.5219523e-01   4.0204413e-02
 -8.1087881e-01   5.1585004e-02
  3.3277956e-01   1.7086184e-01
  1.6177008e+00   7.7163108e-02
 -1.9611725e+00   5.0069459e-02
  1.4072354e+00   5.2642897e-02
  1.5653450e+00   3.8282931e-01
  4.3627450e-01   4.9874913e-02
 -6.0578817e-01   1.2011245e-01
 -3.9661729e-01   1.9224465e-01
  7.2524309e-01   1.8930615e-01
 -9.6707445e-01   1.6960220e-01
 -2.3178959e+00   1.0500833e-01
  1.3997141e+00   6.3546322e-02
  9.0509921e-01   1.7881699e-01
 -1.1323007e-02   1.1087395e-01
 -3.2898396e-01   2.7985054e-01
  5.7019964e-02   1.0964572e-01
 -5.3805137e-01   5.6792866e-02
  6.8851429e-01   1.3668276e-01
  1.1746693e+00   1.4030683e-01
  1.5089476e+00   6.3982055e-02
 -1.8224959e-01   5.7720065e-02
 -7.2444230e-02   1.0149826e-01
  5.9926510e-01   8.4791981e-02
  3.4573090e-01   1.4721119e-01
  4.0471306e-01   1.8099468e-02
  2.8045647e+00   6.8279959e-02
  4.0576375e-01   1.5114026e-01
  1.8673815e+00   6.7139648e-02
 -4.9977902e-01   5.1171944e-02
 -3.1717557e-01   9.2354581e-02
 -5.2706206e-01   2.3752470e-02
 -7.5447905e-01   1.1195251e-01
  2.1821979e-01   1.5519963e-01
 -3.7585488e-01   8.4732585e-02
  5.7732010e-01   2.2773756e-01
 -1.0718200e-01   9.2993550e-02
 -2.3863496e-01   1.3646316e-02
  5.1025387e-02   1.2075309e-01
 -6.1711526e-01   2.7106456e-02
 -3.3742774e-01   1.2551548e-01
  9.0709001e-02   5.6629132e-02
  4.3969837e-01   1.5644577e-01
 -4.8294330e-01   4.1823771e-02
 -2.1844785e+00   2.2777768e-02
 -2.4135637e-01   9.6113399e-02
 -2.9003181e+00   4.4529166e-02
  4.0262470e-01   2.2147277e-01
  6.7574787e-01   6.0537990e-02
  2.3097327e-01   6.2615842e-02
  4.6553835e-02   4.3945875e-02
  1.0228274e+00   1.4513196e-01
 -4.6720737e-01   1.4235489e-01
 -8.6728466e-01   5.5038963e-02
 -1.1896851e-01   5.3081572e-02
  7.7809811e-01   5.7155475e-02
  9.3397313e-01   4.6135485e-02
  4.3522358e-01   6.0820248e-02
 -3.2675650e-02   5.5284359e-02
  7.7627957e-01   8.7950133e-02
 -4.5209032e-02   2.0256044e-01
 -2.5878143e-01   8.5052498e-02
 -6.0155529e-01   2.1218522e-01
 -4.1789436e-01   1.7308109e-01
 -2.1158814e-01   1.5788741e-01
 -1.0155232e-01   1.0688974e-01
 -9.0015978e-02   1.6095306e-01
 -7.8113675e-02   2.7904516e-01
  3.6823454e-01   9.5316619e-02
 -1.2465612e+00   2.8528050e-01
 -1.9280753e-01   1.0278820e-01
  1.4560418e-01   1.9412428e-02
 -1.8609187e-01   6.8818182e-02
 -2.2751822e-01   2.5107062e-01
 -1.5803081e+00   1.0296989e-01
 -8.3225697e-01   8.2733423e-02
  2.2664402e-01   1.1637311e-01
 -1.6602659e+00   7.1237855e-02
  2.4654204e-01   1.4051802e-01
  6.1575836e-01   2.0201585e-01
 -2.4271806e-01   2.3110051e-02
  1.1381289e-01   1.4922838e-01
 -2.3801602e-01   1.1512244e-01
  8.0586129e-01   5.3300735e-02
 -2.6165888e+00   4.4310197e-02
  1.6490723e-01   5.5688929e-02
  4.1318154e-01   2.6255697e-01
 -9.0781456e-01   4.4295754e-02
  9.0930742e-01   1.4909858e-01
  8.7787849e-01   1.5971689e-01
  1.0585203e+00   7.9747975e-02
  1.7726138e+00   3.7503283e-02
  1.7749401e+00   1.1530829e-01
 -1.2603156e-01   1.4949689e-02
 -9.3640722e-02   2.1459281e-01
  1.8722637e-02   8.4941745e-02
  3.0880857e+00   5.2361947e-02
 -3.8047367e-01   9.7616881e-02
  2.7744126e-01   1.3687056e-01
 -2.7310058e-01   6.5262310e-02
  5.9199743e-02   5.3074528e-02
  2.0054999e-01   9.1753185e-02
  2.6656374e-01   8.9748874e-02
 -7.0802385e-01   1.6440354e-01
 -1.3793868e-01   1.2180325e-01
  1.8223213e+00   1.8365332e-01
 -1.7307566e+00   6.5678403e-02
  1.2137254e+00   6.6956773e-02
  5.9403677e-02   8.3770089e-02
  1.0861332e+00   5.4718219e-02
  2.1864252e+00   4.6680421e-02
  1.7535844e-01   1.7187116e-01
  1.9554266e+00   6.7170851e-02
  2.8522193e-02   1.8779765e-01
 -1.3714056e-01   1.1904807e-01
 -7.5252759e-01   6.0649764e-02
 -3.5266393e-01   1.0693906e-01
  6.3159093e-02   1.0430108e-01
 -8.3814418e-01   6.4708158e-02
  2.6379380e-01   1.0773953e-01
 -3.7078258e-01   2.4415490e-01
  3.9439589e-01   1.9433311e-01
 -1.8901499e-01   1.3340817e-01
 -6.2922579e-01   6.0439277e-02
  1.2543241e+00   1.6780415e-01
 -7.9208612e-03   2.6864237e-01
  7.4231917e-01   1.4115343e-02
  6.7648917e-02   5.9110146e-02
  4.3260820e-02   2.4733254e-01
 -1.9530514e-01   1.0120415e-01
  7.3980218e-01   7.0314512e-02
  3.1756300e-01   1.6026257e-01
 -1.8639050e-02   1.3377231e-01
  1.0120354e+00   1.1793176e-01
 -2.5538075e-01   1.6340387e-01
 -7.4200255e-01   2.3213035e-01
  1.1429261e-01   4.7601689e-02
  5.9309173e-01   1.1474643e-01
 -9.3025446e-01   6.4437039e-02
  1.7945153e+00   1.7796595e-01
 -3.9784331e-02   2.1830542e-01
 -7.2131908e-01   1.0765530e-01
  5.2072144e-01   5.1701475e-02
 -2.9698393e-01   6.4437017e-02
  3.7258494e-01   8.8988498e-02
  3.6247981e-01   2.6262492e-02
  7.9666454e-01   8.1127442e-02
  4.6171156e-01   9.6843489e-02
  2.2990456e+00   4.6485644e-02
  1.7975141e+00   7.8324214e-02
  1.3788435e+00   7.6318145e-02
 -6.8539441e-01   3.1191923e-02
 -1.3649418e+00   2.4607779e-02
  1.6535575e+00   6.5021031e-02
  5.7412410e-01   1.5409991e-01
 -9.2995983e-01   1.9383095e-01
 -1.3000511e+00   1.7367420e-01
 -7.6987609e-02   4.2054176e-02
 -3.7433389e-01   1.2589395e-01
  2.9462996e-01   1.3501516e-01
 -9.4016880e-02   1.1481862e-01
  6.2842332e-02   8.8106342e-02
 -1.4539266e-02   2.3489699e-01
  3.2532114e-01   3.3612698e-02
 -9.3985742e-01   2.0407889e-02
  5.2405453e-01   5.5500913e-02
  2.4334790e-02   8.1768081e-02
  3.1548989e-01   2.2674923e-01
 -1.1622350e+00   8.7558918e-02
  2.3280880e-01   7.8890316e-02
  1.3318031e+00   1.7519338e-01
  6.7661786e-01   1.0835978e-02
 -8.8931811e-01   7.1662897e-03
 -2.0145230e+00   1.1255790e-02
  6.4023089e-01   8.1249792e-03
 -3.8217494e-01   2.2968329e-03
 -1.2749341e-01   1.4026095e-01
  2.5745939e-02   6.7362875e-02
 -3.8632104e-01   6.3361920e-02
 -1.9982465e-01   1.0272181e-01
  9.0682471e-01   7.2832845e-02
 -2.0081060e-01   1.2469029e-01
 -4.8136923e-02   5.0475776e-02
 -4.5653705e-02   1.6222320e-01
  1.0340765e+00   4.4653151e-02
 -1.4480191e+00   4.0766429e-02
  2.7817714e-01   9.1178738e-02
 -2.6322782e-02   1.1497596e-01
 -5.4977679e-01   1.2699746e-01
  1.3099673e+00   1.0375086e-01
  3.2637525e-01   1.0604514e-01
  1.5041353e-01   2.5044978e-01
  7.2961748e-01   8.3694175e-02
  9.1412157e-01   3.9351609e-02
  1.5785745e-01   2.0607992e-01
 -1.3106115e+00   2.1018478e-01
  8.6281013e-01   1.7485265e-01
 -1.4881651e+00   2.1253815e-01
  5.1646374e-02   3.0934066e-02
 -9.6004057e-01   1.7414582e-01
  1.0927993e-01   7.5524837e-02
  5.8449721e-01   7.4004191e-03
  1.3965671e-01   4.8767179e-03
 -2.3975666e+00   1.8219156e-02
 -4.3437600e-01   1.1940786e-02
 -4.1292188e-01   2.2947215e-03
 -2.0014179e+00   4.4394374e-02
  1.6135890e+00   4.0937334e-02
  2.7042970e-01   5.8657158e-02
 -1.7688239e-01   7.2000317e-02
  8.0085444e-01   2.6963729e-01
 -1.5847906e+00   8.4414825e-02
 -2.8842235e-01   6.8586379e-02
 -5.9910536e-02   2.8995320e-02
 -6.2101442e-01   9.3784623e-02
 -8.5986608e-01   1.4878078e-01
  9.5712996e-01   1.2568980e-01
 -5.1556027e-01   2.2321866e-01
 -9.5622189e-02   2.1140434e-02
  2.6405981e-01   1.1563043e-01
  7.5322813e-01   8.4038399e-02
  2.5511903e-01   5.4920305e-02
  1.0605037e-01   8.7982386e-02
  7.1090198e-01   1.4488941e-01
 -3.7215489e-01   1.3364032e-01
 -1.3401496e+00   9.0112291e-02
  1.0682619e+00   9.3402162e-02
 -7.9630953e-01   9.5891535e-02
 -7.2660941e-01   1.2139719e-01
  6.1158393e-02   8.0129169e-02
 -2.6013091e-02   1.4222452e-01
 -1.6118277e+00   1.0323212e-01
  1.2796383e-02   1.0211843e-01
 -1.3377757e-01   3.8920153e-02
  1.4150348e+00   6.0124695e-02
  5.4359710e-01   5.2679297e-02
  1.1880422e+00   7.2846286e-02
 -3.6949593e-01   3.3198050e-01
 -8.1081077e-02   4.1685618e-02
 -2.7305165e-01   1.0974833e-01
 -3.6577904e-01   8.8990659e-02
  3.1205946e-01   1.5597430e-01
  5.0917393e-01   1.1391107e-01
 -2.8092730e-01   8.8142782e-02
 -7.0652626e-03   1.5613633e-01
 -6.4323682e-01   2.9413307e-02
 -4.1235846e-01   6.8243809e-02
 -5.1338506e-01   9.2617773e-02
 -2.3915508e-01   2.5656182e-02
 -3.0299953e-01   1.6070308e-01
  6.6971779e-03   2.3013411e-01
  1.4197872e+00   3.7155271e-02
  1.8719318e+00   5.1227983e-02
  8.7076940e-02   6.0780119e-02
 -3.0548680e-01   1.8403040e-02
 -2.4342254e-01   6.9754526e-02
 -1.2497761e-01   9.8657563e-02
  7.2381294e-01   4.9416576e-02
 -2.4583089e-01   1.8259986e-01
  6.9462895e-01   5.9656136e-02
  4.9980611e-01   1.4390299e-01
 -3.2693240e-01   1.1966124e-01
  8.2007903e-01   1.0051171e-01
  1.2356530e-01   9.6903130e-02
 -8.0311584e-01   1.0523807e-01
 -4.9795395e-01   5.9283063e-02
  9.3083215e-01   1.0082699e-01
  1.4608335e-01   7.6257274e-02
  6.9428951e-02   5.6130722e-02
 -2.8372896e-01   1.4037392e-01
 -3.6673975e-01   1.9937523e-01
 -4.5687893e-01   1.6431989e-01
  3.4279857e-02   1.3709073e-01
  9.1843978e-02   1.1939103e-01
  1.4021051e-01   6.2546529e-02
  4.2077109e-01   8.1962235e-02
  1.6001669e+00   7.7143542e-02
 -2.2233973e+00   3.2170169e-02
  7.0002252e-01   1.2553369e-01
 -2.8378703e-02   9.8845400e-02
 -9.2986599e-03   1.2606934e-01
  1.0508728e-01   2.6189935e-01
  6.9147301e-01   3.8870957e-02
 -8.7109172e-01   1.4376827e-01
 -8.2007490e-02   5.1711854e-02
  4.0841943e-01   2.6483053e-01
 -1.4540979e-01   1.3017240e-01
  7.6892111e-03   1.0704637e-01
  1.1989098e-01   6.2777586e-02
 -4.3806756e-01   1.1125831e-01
  1.9384436e-01   4.7128092e-02
 -9.7108823e-01   8.5700668e-02
  2.0547403e-01   2.5872505e-01
  1.3930909e-02   1.3614304e-01
 -1.8017629e+00   9.6475326e-02
  1.5482780e-01   7.8157797e-02
 -6.8480599e-01   6.7039259e-02
  1.0250981e+00   2.0655780e-01
  3.1953120e+00   2.4442423e-02
  3.6609766e-01   1.3993780e-01
 -5.6881618e-02   7.2505236e-02
 -1.5431095e+00   9.4124809e-02
  4.1032508e-01   4.5689147e-02
 -8.0143380e-01   4.8780099e-02
  1.2904993e+00   1.3668729e-01
 -7.1571892e-01   7.2067536e-02
 -7.8808837e-02   1.0384606e-01
  1.9738586e+00   1.7951930e-01
  8.6005473e-01   1.1276418e-01
 -3.9401284e-01   8.8574447e-02
  1.6302543e+00   5.7616167e-02
  1.0034499e-01   4.8048668e-02
  6.4600545e-01   4.8978645e-02
 -8.5246408e-01   4.8932146e-02
  3.5976712e-02   4.0933754e-02
  6.2675828e-01   5.2948702e-02
  3.5822856e-01   1.1714108e-01
  2.2420573e+00   9.0694577e-02
 -2.1831373e-02   2.2447224e-01
 -8.0951422e-02   1.5500844e-01
 -1.3599473e-01   1.0733343e-01
  4.3645543e-01   5.9351541e-02
 -5.0008261e-01   2.8031170e-01
 -9.3967058e-02   1.2465963e-01
  8.7202676e-02   1.2810829e-01
 -1.2366602e+00   3.5994034e-02
 -6.1157572e-01   7.7660948e-02
  7.4900573e-01   2.3991692e-01
  7.7214509e-01   3.1245404e-01
 -2.3531155e-01   2.7528122e-02
  1.5932187e+00   2.6187593e-02
 -3.1074020e-01   1.8223740e-01
  1.2824115e-01   1.6360533e-01
  8.1122905e-02   1.6114172e-01
  8.8464051e-01   6.0341936e-02
  4.8805866e-02   5.8668543e-02
  1.1964864e+00   9.2883557e-02
 -8.1087768e-01   1.2904312e-01
  1.0201840e+00   7.1228243e-02
  1.0796117e+00   4.7726881e-02
  3.5952547e-01   1.1935263e-01
  1.7916583e-01   3.4719545e-02
 -8.9405066e-01   2.5066453e-01
 -3.3451903e-01   5.6868155e-02
 -2.4562772e-01   3.0788320e-01
  7.3614955e-01   4.9267061e-02
 -2.4483044e-01   1.3317227e-01
  7.2490746e-01   1.0373613e-01
 -1.9603571e-01   9.9908851e-02
  6.3962585e-01   3.2373331e-02
  6.8956709e-01   2.8930533e-01
 -9.3070410e-02   1.1066952e-01
 -2.0216523e-01   2.2805471e-02
 -1.0745181e-01   9.2221998e-02
  6.3884723e-01   1.5386364e-01
 -3.9275366e-01   5.6967206e-02
  1.5334031e-01   1.6849290e-01
  1.2904240e+00   3.6312707e-02
 -7.4508393e-01   7.7578038e-02
  1.2073207e-01   2.6544804e-02
  7.2794801e-01   1.7758735e-01
 -9.5602715e-01   2.1743293e-01
  7.6816261e-01   1.3030073e-01
  1.7923045e-01   1.0926574e-01
 -1.0340252e+00   4.2949229e-02
 -8.5240388e-01   1.9864966e-01
 -1.2185321e+00   8.7729013e-03
 -2.2356242e-01   6.4241715e-02
 -5.7894260e-01   1.3218038e-01
  4.2959061e-02   5.5671494e-02
 -5.6533200e-01   1.3772945e-01
 -2.5120452e-01   1.9565679e-01
  2.9597041e-01   3.4315157e-01
 -4.9248528e-01   1.5683515e-01
 -8.2515776e-01   1.0422673e-01
 -5.3391707e-01   8.5955232e-02
 -1.1195266e-01   1.5380913e-01
 -1.3484093e+00   6.4490959e-02
 -6.7136991e-01   2.6168732e-02
  1.2634091e+00   1.5528034e-01
 -5.4321632e-02   1.7393444e-01
 -1.5489975e-01   3.7044201e-02
 -5.5905092e-01   9.1425076e-02
  1.5690815e+00   1.3345960e-01
 -8.6796153e-01   1.4851575e-01
 -4.7981775e-01   8.6252227e-02
 -7.7688551e-01   7.6338485e-02
 -4.4243567e-02   4.5860332e-02
  1.6366668e+00   1.8868867e-01
 -2.0914857e-01   1.1630896e-01
 -2.6280212e-01   5.6967314e-02
 -9.9081659e-01   7.9832487e-02
 -6.1855629e-02   3.1165175e-02
  6.2445098e-01   1.0412836e-01
  7.8371292e-01   2.3620831e-02
  1.0179474e+00   3.0820312e-02
  2.2052526e+00   1.0064281e-01
 -6.4073485e-01   4.8150733e-02
  4.0619001e-01   1.0577699e-01
 -9.1259968e-01   1.2328026e-01
 -1.5645077e+00   2.7680170e-02
 -1.9601545e-01   2.2358903e-01
 -1.1050748e+00   1.2296677e-01
 -2.6797718e-01   9.2370741e-02
 -1.0512155e+00   7.6079838e-02
 -6.9911194e-01   3.0932605e-01
 -6.7207688e-01   1.3049535e-01
  2.6237747e-01   1.9692115e-01
  9.3221307e-01   9.8089121e-02
  1.1747763e+00   1.0622939e-01
 -6.2643573e-02   7.2963782e-02
 -1.5622276e-02   4.7798339e-02
  8.5015756e-01   5.9847761e-02
  8.0027938e-02   5.2539464e-02
  1.1267436e+00   1.8632621e-01
 -2.9167959e-01   3.3044882e-02
 -4.4015691e-01   3.7978783e-02
  1.4157379e-01   1.9610222e-01
 -4.9805477e-02   4.3231586e-01
 -3.4731790e-01   2.7894038e-01
  3.9965120e-01   6.4975232e-02
  4.2536104e-01   1.4030308e-01
  2.8917828e-01   7.8054547e-02
  1.2761703e-01   1.6876175e-01
 -1.4456633e-02   1.4556065e-01
  4.6974081e-01   1.9729120e-01
  4.7586866e-02   1.1321088e-01
  3.5814622e-01   6.3161053e-02
  2.0091996e-01   1.1145424e-01
  1.4993514e+00   9.8535173e-02
  3.3433276e-01   1.1072563e-01
 -1.9925870e-01   2.1088964e-01
  5.1342439e-02   8.1237160e-02
 -8.7237112e-02   1.3687530e-01
  3.9045078e-01   9.2994079e-02
  2.5789505e-01   8.3776161e-02
 -3.9935234e-01   3.1774312e-02
  1.2972889e+00   6.8052866e-02
  3.7677627e+00   2.1238586e-02
 -1.3888098e+00   2.6029673e-01
  9.2176914e-01   2.5789222e-02
  5.3967154e-01   4.8184015e-02
  1.8329796e+00   9.3416668e-02
  4.0272650e-01   1.3250535e-02
 -3.0733100e-01   6.8643317e-02
  1.7008978e-01   2.4168244e-02
 -6.8035817e-01   4.6663944e-02
 -1.0234854e+00   1.6473357e-01
 -3.4642532e-01   7.1133114e-02
 -1.7670397e+00   6.4989999e-02
 -7.8017598e-01   2.2464700e-01
  7.1231723e-01   1.2595958e-01
 -1.6570983e+00   1.4727494e-01
  1.7440104e+00   3.6360312e-02
  2.8425425e-01   1.2630676e-01
  1.0130359e+00   5.1082876e-02
  3.5944232e-01   1.5434138e-01
  1.2809527e-01   2.0601511e-01
 -7.6231283e-01   1.5440764e-01
  2.1923458e-02   9.6470244e-02
  1.3206317e+00   9.5355868e-02
  4.2420733e-01   1.1522968e-01
 -5.5061203e-01   5.2926332e-02
  4.1123548e-01   4.5982201e-02
 -1.0037956e-01   1.6726564e-01
  3.9329535e-01   6.6498205e-02
  4.2155412e-01   2.5676563e-01
  1.1081608e-01   8.1614293e-02
  2.4592070e-01   2.3188742e-01
 -4.6477950e-01   1.6451065e-01
  3.8572133e-01   2.0232314e-01
  3.2954687e-01   9.5139183e-03
 -4.3652549e-01   5.4891337e-02
  2.1396793e-01   1.6335477e-01
 -6.5724857e-02   4.6113420e-02
  6.3229138e-01   2.5213303e-02
 -1.7552158e-01   3.0531561e-02
  6.9033736e-01   1.0592629e-01
 -5.8264655e-01   1.0808861e-01
  8.4901918e-03   1.3189933e-01
 -1.0896001e-01   1.0389315e-01
 -5.3076893e-03   1.7371947e-01
 -2.9794103e-01   3.7194386e-02
  4.7685581e-01   1.4931767e-01
  1.6241559e-01   8.5388929e-02
  1.5409209e+00   3.7163815e-01
  1.2093624e-01   1.1322591e-01
 -1.4911087e+00   1.0523207e-01
 -9.2244789e-02   9.8711111e-02
 -1.2223155e-01   2.4872692e-01
  9.5788294e-01   1.7284441e-01
 -5.9372932e-01   1.3407613e-01
  1.0018765e+00   7.6676935e-02
  5.5023268e-02   1.1445692e-01
 -6.1340317e-02   6.7946620e-02
  1.6170666e+00   1.0256065e-01
 -1.9003522e-01   5.5648778e-02
  6.4087433e-01   5.2764218e-02
 -5.1996738e-01   1.7913838e-01
 -3.6899298e-01   1.8374196e-01
  2.6032841e-01   6.9298089e-02
 -1.0332037e+00   5.9147041e-02
 -6.9104886e-01   1.9028267e-01
 -2.1304550e+00   2.0983274e-01
 -2.6569423e-01   7.9164878e-02
  7.1512830e-01   1.0523313e-01
  1.7229310e+00   3.2246482e-02
 -5.1539618e-01   7.4290521e-02
  1.4384340e-02   3.0309816e-03
 -5.1801759e-01   2.2763383e-02
  2.2896597e-01   2.5192398e-01
 -1.2514696e-01   1.0553221e-01
  1.2329242e+00   5.4048412e-03
 -1.0725914e+00   1.0085237e-01
 -6.8903756e-01   9.1217205e-02
 -2.2899684e-01   8.7156519e-02
 -1.5694669e-01   1.0979927e-01
 -9.1956627e-01   1.0821441e-01
 -7.4628925e-01   4.3390483e-02
 -6.6212857e-01   1.4221296e-01
 -5.2303076e-02   1.0584239e-02
 -3.0192122e-01   1.0937525e-02
 -3.3849680e-01   2.3510997e-01
  2.1360363e-01   1.5641683e-01
 -3.6552250e-01   4.2971969e-02
  8.4304178e-01   7.3121190e-02
  4.2601591e-01   1.3697638e-01
  2.4913061e+00   6.8518393e-02
 -5.8720767e-01   1.4065205e-01
  7.0400852e-01   1.4891841e-01
  4.3998647e-01   2.0924060e-01
 -2.7248359e-01   7.9514697e-02
 -2.1742703e-01   7.2995089e-02
  9.2660266e-01   4.4838939e-02
  3.3901703e-01   3.5289902e-02
  1.3379263e+00   3.3171326e-01
 -3.9702183e-01   2.1723837e-02
 -5.4567504e-01   2.7407616e-02