  2.5474238e-01   2.7413245e-02
  5.7538621e-02   2.2440897e-02
 -1.5619598e-01   1.9014549e-02
 -5.2021522e-02   3.1152420e-02
  5.7181992e-02   2.0094683e-02
 -1.7299250e-01   3.8526013e-02
 -2.6800798e-02   4.1024994e-02
 -3.6575202e-02   3.2629803e-02
 -1.2247078e-01   3.5696786e-02
 -8.3914042e-02   2.1410935e-02
  4.7630936e-02   3.3214394e-02
  2.2320140e-02   2.1727402e-02
 -8.8157533e-03   3.7486009e-02
  4.8271152e-03   1.7613968e-02
  4.4089291e-02   2.4061564e-02
  1.3261192e-01   5.5388652e-02
 -2.1401282e-02   3.2538675e-02
 -7.1744479e-02   3.1657699e-02
 -1.1248057e-01   8.7531945e-03
  1.9205494e-01   5.1495180e-02
  9.9870503e-02   1.6681870e-02
  3.3932000e-02   2.2955537e-02
  1.2241336e-01   3.4779359e-02
 -1.0116451e-02   3.2769751e-02
 -6.8518043e-02   5.9938300e-02
  2.1592348e-03   2.9319659e-02
  4.8345517e-02   2.5264096e-02
 -2.6567042e-01   2.2921300e-02
 -6.7944475e-02   3.0654179e-02
  2.1120751e-02   1.9733215e-02
  9.8605625e-02   3.4281731e-02
 -9.1847721e-03   3.5505548e-02
  9.3714928e-04   3.1558879e-02
 -1.0022371e-01   2.6168583e-02
 -5.9859876e-02   2.4037827e-02
  7.1950205e-02   1.1473620e-02
  5.3874522e-02   3.6775548e-02
  2.8690645e-01   2.4442038e-02
 -5.5005043e-03   2.7838903e-02
  9.2484526e-02   3.8917400e-02
  1.8397342e-01   3.4654648e-03
  6.4406335e-02   9.6742418e-03
 -1.4064036e-01   2.0218721e-02
 -1.7146859e-01   1.4055067e-02
  8.2003184e-02   1.7676435e-02
  1.5864389e-01   2.4085088e-02
  1.4140011e-01   1.0602331e-02
  6.5183841e-02   2.8607152e-02
 -1.3438950e-01   1.1807241e-02
 -1.7298301e-01   6.3015796e-02
  3.8576677e-02   4.9933076e-02
 -1.6210018e-02   2.2305708e-02
 -6.0053196e-02   2.6699003e-02
  5.3741414e-02   2.2021512e-02
  3.1425945e-02   4.4771347e-02
 -1.1234970e-01   1.5988296e-02
 -3.9491620e-02   2.8706035e-02
  3.7023235e-02   5.4080233e-02
 -1.8073782e-01   1.6050771e-02
  2.0284213e-02   1.3320854e-02
 -4.7590334e-02   5.3310641e-03
 -5.1296875e-02   9.7162984e-03
  2.4674272e-03   3.5922207e-02
 -1.6114201e-02   3.2219194e-02
  6.4801775e-02   2.3045236e-02
 -1.4430623e-01   2.4457378e-02
 -1.1032557e-02   1.9552110e-02
  1.7422777e-01   1.6570959e-02
  5.5963721e-02   1.6603014e-02
 -8.9655071e-02   1.5277395e-02
 -4.5142304e-03   2.9115541e-02
 -1.0771080e-01   4.7834564e-02
 -2.4997655e-02   1.3959510e-02
 -1.5743375e-01   2.8831079e-03
 -5.7304975e-02   2.2323107e-02
  3.6540043e-02   1.7724972e-02
  1.1548041e-03   3.3012107e-02
 -1.0531948e-01   4.5359980e-02
 -1.1378521e-01   2.5457835e-02
  1.9189712e-02   3.7637591e-02
 -2.9726135e-02   4.1282900e-02
 -4.1662466e-02   7.5061642e-02
  1.0622751e-02   3.9219853e-02
 -9.6179865e-02   1.7784124e-02
 -3.2636620e-02   2.0101301e-02
  9.2299484e-02   4.9538840e-02
 -7.4604891e-02   1.9790687e-02
 -8.8674799e-02   3.0409912e-02
 -9.0825902e-03   2.7698012e-02
  1.1047713e-02   3.5411384e-02
 -3.5396375e-02   1.8961936e-02
  5.9010789e-02   1.7658543e-02
  1.5394646e-01   3.7901353e-02
  4.5636520e-03   1.6689645e-02
  6.5907545e-02   5.7935640e-02
 -1.6399114e-01   3.0038409e-02
 -3.3725984e-02   3.5600152e-02
  4.4635434e-02   3.4973025e-02
  6.7025147e-02   2.7628206e-02
  8.8183254e-02   2.7848717e-02
  2.0619996e-01   1.2174552e-02
  3.1443484e-02   2.7636318e-02
  5.2493565e-02   2.7317815e-02
  8.2050068e-03   7.5162657e-02
  4.5989249e-02   2.2642026e-02
 -1.9146021e-01   9.0589076e-03
 -9.1291659e-02   1.4591068e-02
  6.9589250e-02   2.6195811e-02
  9.4227672e-02   2.3782067e-02
  3.7152205e-02   3.8937088e-02
 -3.8468074e-02   1.6373934e-02
 -3.1898655e-02   4.1275792e-02
 -7.1256973e-02   3.4995794e-02
 -7.0117611e-01   9.6794702e-03
 -1.8300364e-03   1.7356995e-02
  7.0379237e-03   2.0767411e-02
 -4.9850982e-02   2.9835803e-02
  7.6171122e-02   4.3590225e-02
  3.5066004e-03   8.2544954e-03
  5.7407054e-03   1.4605356e-02
  4.8123896e-02   1.3935382e-02
 -8.7358363e-02   2.6577218e-02
  8.1639014e-02   1.7193053e-02
  4.0873874e-04   3.7599962e-02
 -1.0897524e-01   6.3486800e-02
 -2.8584946e-02   3.9954867e-02
  2.2924881e-01   4.2113196e-03
  3.4683538e-03   2.2052055e-02
 -6.5325558e-02   9.5506599e-03
  1.5100919e-01   1.5278579e-02
  9.9651041e-03   1.4155527e-02
 -3.3528864e-02   1.6604036e-02
 -3.0047499e-02   2.5572047e-02
  7.8005595e-03   2.2015058e-02
 -9.2810132e-03   5.2699000e-02
  6.0221475e-02   1.7167654e-02
 -2.9320642e-01   1.2373853e-02
 -1.4021288e-03   3.1373173e-02
  1.2329710e-02   1.9086175e-02
 -1.0223708e-01   7.4428745e-02
  8.1001818e-03   3.8103398e-02
 -9.1572315e-02   1.1686312e-02
 -6.1138507e-02   1.7861724e-02
 -2.4736440e-02   1.1496306e-02
  2.4037041e-02   5.1941227e-02
  4.9979538e-02   2.4540767e-02
  5.7438470e-02   3.1372707e-02
  3.2156523e-02   4.1501485e-02
 -1.0761002e-01   1.0899222e-02
  2.0482456e-02   1.6568804e-02
  2.1444427e-02   1.8130366e-02
 -8.1091747e-02   2.9338045e-02
 -1.0299099e-01   3.1188380e-02
  1.6587572e-01   2.8158708e-02
  1.7387135e-02   4.3724764e-02
  1.2161001e-02   4.8489414e-02
  7.3950432e-02   3.7465379e-02
 -3.3728998e-02   2.0826444e-02
 -9.9201553e-02   3.1943183e-02
 -5.7308555e-02   5.9815589e-02
  8.1295051e-02   4.5604490e-02
 -2.8226616e-02   3.3699688e-02
  6.8250142e-02   9.7655356e-03
 -1.7880283e-02   1.2793861e-02
 -7.0241606e-03   1.5868185e-02
 -4.0107384e-02   3.3277459e-02
 -1.0669969e-01   2.6058523e-02
  9.5368503e-03   3.0852525e-02
  9.7338147e-03   2.4286440e-02
  5.1424958e-02   1.7938629e-02
 -4.6573550e-01   5.7094884e-03
  9.3431495e-02   9.9008195e-03
  2.3181692e-01   2.5541021e-02
  6.6646473e-03   2.9563531e-02
  1.5107035e-02   2.8075743e-02
 -1.3041824e-01   2.9061431e-02
  2.2246140e-01   4.5333609e-02
 -1.1032064e-01   2.1232840e-02
  3.9518289e-02   2.8765330e-02
  1.4452569e-03   3.4728054e-02
 -2.3725946e-02   2.9694160e-02
 -7.5340703e-02   3.0576292e-02
  6.7517400e-02   1.6364550e-02
 -3.6961880e-02   3.6303103e-02
  1.6990031e-01   4.1786991e-02
  1.6153684e-02   3.5632867e-02
  2.3446414e-03   4.4195876e-02
  1.8583050e-02   3.1430483e-02
  8.8417314e-02   3.0302770e-02
  1.9611202e-02   3.2837797e-02
  5.8664259e-02   8.6520817e-03
  1.2752269e-01   2.4165010e-02
  1.7263952e-01   5.8600206e-02
 -2.7232671e-02   2.2519300e-02
 -2.9492134e-02   3.4854114e-02
  2.8821209e-01   6.7251258e-02
  4.5967725e-01   5.6354981e-03
  5.4039970e-02   2.9627208e-02
  3.0258480e-02   1.6422532e-02
 -5.9442319e-02   3.9980672e-02
 -2.1960376e-02   3.1036723e-02
 -9.5924035e-02   1.7698161e-02
 -1.6383313e-01   1.3108719e-02
 -1.5405416e-01   3.3985212e-02
  8.2268968e-02   1.9193104e-02
 -6.6826656e-02   2.3521077e-02
 -1.6751288e-02   3.6240436e-02
 -9.5466658e-02   3.5690434e-02
  6.2414245e-03   2.3713687e-02
 -4.5984797e-03   3.1986196e-02
  2.7105773e-02   1.3009103e-02
  2.4930738e-02   4.1242383e-02
  2.9708179e-02   2.6541598e-02
  9.9109143e-02   2.4347279e-02
 -9.8890271e-03   3.3130430e-02
  1.3420214e-01   2.4235861e-02
 -4.8486989e-02   4.7874139e-03
 -4.3478973e-02   3.2852121e-02
  5.0167728e-02   5.9180576e-02
  8.2865022e-02   2.9116854e-02
  2.9708816e-02   9.0921903e-03
  2.4201429e-02   3.2625593e-02
 -1.0091705e-01   4.8731335e-02
 -1.2873298e-01   5.7206463e-02
  1.2188293e-01   7.2958744e-03
  2.7125869e-02   3.6291733e-02
  1.9738080e-01   2.5419338e-02
  1.6445085e-01   3.0092133e-02
 -3.1681374e-02   4.9020112e-02
 -8.7384492e-02   1.2012810e-02
 -8.7931596e-02   4.2507514e-02
 -4.5272786e-02   1.1311834e-02
  1.2653309e-01   2.8306872e-02
 -7.9365857e-02   2.1576734e-02
  3.1755157e-02   5.8471359e-02
  3.8742272e-03   1.4061575e-02
 -7.4190922e-02   4.2292923e-02
  2.8430342e-03   4.1015852e-02
  2.1909126e-03   2.7517952e-02
 -3.9765961e-02   2.8982921e-02
  7.8338221e-02   3.2754686e-02
 -1.8741198e-01   2.5326941e-02
 -4.1319713e-02   3.2886915e-02
  5.7386197e-02   2.6147943e-02
  2.0209542e-01   4.3869693e-02
 -2.6893798e-02   2.7005350e-02
  4.9902588e-02   2.8099982e-02
 -5.8413550e-02   5.3134177e-02
 -7.4568540e-02   3.5533309e-02
  2.6931157e-02   5.1584247e-02
  1.9503303e-02   3.6076888e-02
 -1.5420505e-01   1.8192099e-02
 -1.3794138e-01   9.4959326e-03
 -9.0210482e-02   1.7387850e-02
  1.8519163e-02   1.1770259e-02
 -7.8232117e-02   4.3960330e-03
 -2.6751054e-03   1.0241181e-02
 -9.7658522e-02   1.1033259e-02
  1.3930555e-01   2.4932507e-02
  1.1031771e-01   1.5368483e-02
 -7.2019637e-02   2.8078733e-02
  5.3495867e-03   8.2836635e-03
 -7.0465893e-02   1.8982520e-02
  1.3068758e-01   3.9448220e-02
  1.2102342e-01   4.9660027e-02
 -1.1381146e-02   1.2764149e-02
 -5.6405470e-02   2.2809502e-02
  8.3086835e-03   1.7040666e-02
 -4.4815421e-02   8.4035015e-03
  9.9857815e-02   1.5782047e-02
 -1.7779930e-01   5.1685207e-02
  3.2438006e-02   1.2286911e-02
  1.1994819e-01   2.5963629e-02
  2.2143270e-01   1.5492340e-02
  3.2332327e-02   2.2466714e-02
 -9.8642729e-02   1.5146496e-02
  5.8577776e-02   2.0308902e-02
 -2.6310286e-03   1.8322445e-02
  2.1805961e-01   2.5670161e-02
 -4.9980983e-02   4.2032540e-02
 -1.0335929e-02   2.6633123e-02
 -1.1945317e-01   3.9807327e-02
 -1.3064061e-02   2.0988841e-02
 -5.5187717e-02   2.2505745e-02
 -1.3681462e-01   2.5321580e-02
 -5.5829380e-03   2.7741184e-02
  3.4988374e-02   2.1295365e-02
 -3.9772268e-02   2.4819834e-02
  9.5328093e-02   1.4158975e-02
  8.2962133e-02   3.7793737e-02
  5.8013678e-02   6.0707186e-03
  1.2461447e-01   3.3237427e-02
 -2.2270691e-02   3.1885639e-02
  3.6578294e-02   4.1076411e-02
 -2.0958376e-01   8.1145735e-03
 -9.7474031e-02   2.6395973e-02
 -9.2313230e-02   1.2955665e-02
  2.0976259e-01   5.8140941e-03
 -1.1067858e-01   1.9492686e-02
 -3.7443817e-02   1.9260328e-02
  4.2972043e-02   3.9860487e-02
 -4.5072794e-02   3.0577842e-03
  1.1162609e-03   4.7755133e-02
  2.2459267e-02   1.5531853e-02
  5.3239238e-02   2.5667412e-02
  4.0162005e-02   4.3218814e-02
  9.3826391e-03   2.6296550e-02
  4.6253706e-05   2.8893072e-02
  6.7835897e-02   2.5977330e-02
 -1.5907498e-02   1.7859222e-02
  3.8782816e-02   2.2744430e-02
 -2.3244829e-01   2.1987842e-02
  8.9151248e-02   4.8906948e-02
 -6.1962113e-02   7.6625315e-03
 -1.2875354e-02   4.9749542e-02
 -7.4155144e-02   3.2041043e-02
 -8.6928188e-04   2.4323838e-02
  4.8249628e-02   2.9329764e-02
  5.6531519e-02   1.7618615e-02
 -4.4288120e-04   1.8645661e-02
 -9.8581582e-02   2.5295820e-02
  2.9420048e-02   2.3744226e-02
 -6.5615289e-02   1.9522527e-02
 -6.5508537e-02   9.8639792e-03
  6.4261623e-02   4.9521439e-02
 -4.3346789e-02   5.0491270e-02
  4.7185108e-02   2.5707802e-02
 -1.3659373e-01   4.2153515e-02
  5.7939541e-02   5.0766885e-02
 -8.2818776e-02   3.1469759e-02
  3.3865385e-02   3.7259504e-02
 -3.8789112e-02   3.2493550e-02
  9.7135156e-02   5.6061875e-02
 -7.2764963e-02   3.9114181e-02
 -5.1197957e-02   2.4508171e-02
 -7.0781382e-03   3.0269122e-02
  3.7249554e-02   2.7342457e-02
  1.1164588e-03   3.6034316e-02
  2.1608653e-02   1.9996369e-02
  1.1878790e-01   2.2801924e-02
  2.7247215e-02   3.0617923e-02
  2.1452891e-02   1.6028434e-02
 -6.3634813e-02   1.4164715e-02
 -5.4460138e-02   2.0420896e-02
  7.2244010e-03   4.1723844e-02
 -4.7812339e-02   2.0090269e-02
  8.9877516e-02   2.3874842e-02
 -1.1145440e-02   2.6751252e-02
  2.2850867e-02   5.1765639e-02
  8.9415151e-04   6.6799596e-03
  3.1392943e-02   3.9093416e-02
  2.6728300e-02   3.9045084e-02
  2.1212123e-01   1.5223509e-02
 -7.7081448e-03   2.3852387e-02
  5.1629454e-02   3.0043270e-02
 -1.3439623e-03   7.1962968e-02
 -4.9964772e-03   1.4471923e-02
 -1.1317249e-01   4.9206983e-02
 -1.1351699e-02   1.4019786e-02
 -9.5127365e-03   1.8738825e-02
 -4.2690087e-02   1.0533738e-02
 -3.1021068e-02   4.3060966e-02
  2.3013040e-01   1.7793158e-02
 -9.6623011e-02   1.7528502e-02
  1.6863709e-02   2.9745357e-02
 -2.5832662e-02   2.2606576e-02
  8.0636419e-02   3.6728282e-02
  4.4759378e-02   3.0199474e-02
  6.0856935e-02   1.9667039e-02
  8.1427060e-02   3.2408465e-02
 -3.2070003e-02   3.9222009e-02
 -9.9551946e-02   3.5715189e-02
  3.3481218e-02   3.4124143e-02
  4.2139117e-02   2.7004007e-02
 -2.6444657e-02   3.8593758e-02
 -9.9269152e-02   4.2629026e-02
 -1.4910789e-02   4.5020826e-02
  3.7118755e-02   2.9389629e-02
  6.3306466e-03   1.1637970e-02
  1.7732969e-01   1.9615399e-02
 -7.9523362e-02   8.0181668e-03
 -2.2466835e-02   9.5115397e-03
 -3.0324128e-01   1.1287740e-02
  1.6548997e-01   1.7462645e-02
 -3.2224737e-02   8.1896558e-03
 -1.1472621e-01   2.1705426e-02
 -1.0628396e-01   5.7264905e-02
 -1.2478208e-01   9.6956696e-03
  1.8445360e-02   2.2845846e-02
 -1.3079305e-01   4.7782067e-02
  3.3263631e-02   1.4530018e-02
 -5.7617657e-02   2.1935305e-02
 -3.8102053e-02   1.8918276e-02
 -1.3559943e-01   4.9248829e-02
 -2.1667083e-01   2.0022959e-02
 -8.4751695e-02   2.8545041e-02
 -7.2492756e-02   5.2017413e-02
  1.7403989e-01   5.9945963e-02
 -2.7429549e-02   4.7989547e-02
  3.9041322e-02   5.3687453e-02
  2.4782484e-02   1.7676510e-02
 -3.7169531e-02   1.1474585e-02
  1.2890534e-01   2.5500318e-02
  1.4050621e-01   6.3587479e-02
  3.7071049e-02   1.5836092e-02
  9.3576960e-02   1.8649416e-02
 -9.7763184e-03   3.9183687e-02
  3.9784029e-02   4.2725816e-02
  3.3075601e-02   1.6567949e-02
  1.1209796e-01   3.2001778e-02
  2.6549572e-02   6.8311747e-03
  2.8850039e-02   2.5939321e-02
  1.1239466e-01   2.7650844e-02
  1.4337180e-02   6.9460243e-02
  2.0579809e-02   2.3049051e-02
 -2.8161814e-03   1.6548388e-02
  3.4936719e-02   3.1825975e-02
 -5.1457964e-02   4.2577311e-02
  1.6970377e-02   1.5691416e-02
  3.6646836e-02   1.9129498e-02
 -3.7246525e-01   4.9272920e-03
 -1.9879538e-01   5.5516292e-03
  4.5492297e-01   2.0661089e-03
  1.6517062e-01   1.4269468e-03
  1.1037947e+00   1.3366288e-02
 -1.8657175e-01   9.7504538e-03
 -2.2983712e-01   1.5939960e-02
 -1.1374785e-01   3.7792761e-02
  1.7785573e-01   5.7637125e-02
 -4.9023941e-02   1.0837145e-02
 -6.0529821e-02   2.4625961e-02
  7.7539437e-02   2.7701821e-02
  6.6680528e-02   1.3007836e-02
  6.9840916e-02   3.1885743e-02
 -3.9632369e-02   1.6605167e-02
 -2.2324739e-02   2.3674496e-02
  5.4673471e-02   1.3446335e-02
 -1.2302006e-01   5.6570759e-03
  9.6582063e-02   2.6826279e-02
  2.1921560e-02   2.3091635e-02
  7.2838567e-02   1.3807163e-02
  2.0532104e-01   3.8146649e-02
 -5.3029299e-02   4.4113729e-02
  5.9519175e-02   1.6477989e-02
  2.3916344e-01   1.4199812e-02
  2.8633477e-02   2.3875661e-02
 -2.3830133e-02   7.9825902e-03
  5.2540418e-02   3.3874087e-02
 -2.2553237e-02   3.2121170e-02
 -3.7952848e-02   2.3601003e-02
 -1.8792965e-02   2.9877082e-02
 -7.3489420e-02   4.9169257e-02
 -2.6588780e-03   1.7053012e-02
  2.2789516e-02   1.7100180e-02
 -5.7379259e-03   1.6811900e-02
 -1.4600417e-02   1.3703485e-02
 -1.6083842e-02   2.7393613e-02
 -5.9163328e-02   1.1817003e-02
  1.1180505e-01   2.4996603e-02
  3.8308956e-02   2.5677271e-03
  3.7907358e-02   4.1855227e-02
 -1.6115086e-02   4.7212511e-02
 -7.3270765e-03   8.6631821e-03
  5.7817463e-02   2.8938586e-02
  1.1208092e-01   2.6977081e-02
 -1.6535411e-02   1.0870565e-02
  2.7541467e-04   2.6393672e-02
  7.5901498e-04   2.5628751e-02
  1.1565077e-01   1.8483309e-02
  1.2475127e-01   6.9075778e-02
  2.0468274e-01   4.8126042e-02
  5.3467101e-01   1.4699196e-02
  1.9635817e-01   2.1132521e-02
  2.0377064e-02   3.7926372e-02
 -1.7659009e-02   3.1571992e-02
 -2.4342911e-01   5.4884236e-02
  9.0188406e-02   1.2794062e-02
  7.0933811e-02   1.1138851e-02
 -3.0789142e-02   1.4413340e-02
 -1.0135813e-02   2.9711735e-02
 -7.1715340e-02   2.1507077e-02
 -1.3441435e-01   2.2542400e-02
 -1.9836908e-03   2.0938095e-02
  1.6035233e-02   3.0953044e-02
  9.6457146e-02   4.0181469e-02
  4.3721538e-02   3.0940106e-02
 -1.3487305e-01   1.5856806e-02
 -3.7414223e-02   1.9943953e-02
 -4.2416733e-02   4.4717114e-02
  6.2816832e-03   2.3289647e-02
 -1.0195972e-01   3.5373479e-02
 -4.5263004e-02   1.3223710e-02
 -1.0426916e-01   3.6166385e-02
 -5.0483659e-02   2.2488348e-02
 -5.7661656e-02   4.2206731e-02
 -7.7169142e-03   2.7613822e-02
  1.4685632e-01   5.2780427e-02
  3.6169391e-02   4.5283068e-02
  2.0330202e-02   1.7366838e-02
  8.3643526e-02   1.8669350e-02
  2.0489130e-02   1.8628387e-02
 -2.0899903e-02   4.9750648e-02
 -1.9796288e-01   3.7834067e-02
  1.4033447e-02   5.4781247e-02
  8.8102803e-02   2.2088382e-02
  1.5347635e-02   2.1277318e-02
 -2.6559670e-02   1.0481073e-02
  4.3461971e-02   5.8379294e-03
 -1.1259798e-02   2.2338739e-02
 -3.1905551e-02   2.2532947e-02
  2.6930243e-02   2.7041610e-02
  1.7517392e-01   2.9562281e-02
  1.1720534e-02   4.0935464e-02
 -2.7868935e-01   1.4163729e-02
 -6.6226698e-02   2.5425693e-02
  8.8523738e-02   4.3458808e-02
  1.3207690e-01   3.7721004e-02
  4.3793321e-02   4.9838834e-02
 -2.2868000e-02   3.3898592e-02
 -1.4802873e-01   2.8636962e-02
  3.9505135e-02   1.3534260e-02
  1.4381042e-02   2.1997610e-02
 -1.8095596e-04   3.5097457e-02
  1.4171302e-01   3.0915696e-02
  6.7367502e-02   3.7210591e-02
  1.3925305e-01   2.4910364e-02
  1.2087801e-01   9.4189839e-03
 -8.4472232e-02   1.5753442e-02
 -2.6581449e-02   1.5186015e-02
  3.4907095e-02   2.3542864e-02
  1.1431283e-02   1.2037355e-02
 -7.3946871e-02   2.1978941e-02
 -7.7023469e-02   3.9959691e-02
 -7.8301735e-02   2.2205729e-02
  6.4854376e-02   3.2921579e-02
  4.9994860e-02   2.4307519e-02
  1.4919167e-02   4.0383998e-02
  1.3862817e-01   2.9351367e-02
 -8.1754319e-02   1.7364936e-02
 -6.1411811e-03   3.3254750e-02
 -7.8840889e-02   4.3529641e-02
 -5.4135505e-02   2.5978163e-02
 -5.2416422e-03   2.1485049e-02
  5.6105379e-02   2.4216460e-02
 -4.1052386e-02   3.8868610e-02
  5.4258239e-03   2.8083503e-02
 -2.6107672e-01   6.3117914e-04
 -3.7487946e-02   1.8650154e-03
  2.0038444e-01   1.2669759e-03
 -2.0525473e-01   5.5292936e-04
 -1.4314165e+00   7.4677798e-04
  1.5546867e+00   3.8411517e-03
 -1.0923648e+00   9.5805962e-04
  8.4093176e-02   2.7872516e-02
 -4.8527874e-02   1.6683932e-02
  8.8662213e-01   4.0032393e-03
  1.3996510e-01   2.2458503e-02
  1.1375023e-01   2.6835853e-02
 -5.2081797e-02   1.7284354e-02
 -1.3469382e-01   4.2284675e-02
 -1.4799491e-01   8.1298286e-03
  1.3558845e-01   1.6367385e-02
  5.0637659e-02   1.1027365e-02
  2.1539325e-02   5.0710691e-03
  3.5477072e-02   3.2436669e-02
  4.6216413e-02   2.8994370e-02
  2.3401879e-02   4.7409717e-02
  1.1035959e-01   2.9425455e-02
  4.1119702e-02   2.7769240e-02
 -2.6235777e-01   6.0562557e-03
 -7.9633361e-03   1.5499748e-02
 -1.7687228e-02   2.7575823e-02
  7.7530734e-02   4.0346399e-02
  8.0932133e-02   9.7241355e-03
  1.6390224e-01   1.4975124e-02
  2.3748185e-01   2.5955271e-02
  5.4576069e-01   1.0397031e-02
  7.0819007e-03   6.4363992e-03
 -3.3037481e-01   2.4722589e-02
 -1.6683243e-02   4.1169893e-02
  3.4426570e-02   2.2964871e-02
 -7.7275991e-02   5.8789004e-02
  8.5760415e-02   2.6751135e-02
  1.4016671e-01   1.9634200e-02
  1.0132021e-01   1.4817499e-02
 -2.0451662e-01   4.0488087e-02
  5.5555925e-02   4.2066071e-02
 -3.0929008e-02   1.8116210e-02
 -2.4620184e-01   1.9870177e-02
  1.1011212e-02   3.1877022e-02
  2.9779920e-02   1.1990447e-02
  7.5101219e-02   3.8592439e-02
  1.6840483e-01   2.2464490e-02
 -8.0686823e-02   1.1801960e-02
  3.5540141e-02   6.9423262e-03
  6.1837718e-02   4.8276477e-02
  8.7535180e-02   4.3159742e-02
 -1.7786756e-03   2.0735838e-02
  8.0212928e-02   3.0399578e-02
 -8.7017296e-03   2.0890042e-02
 -1.0345717e-02   3.7673000e-02
  3.4446359e-02   2.9991964e-02
 -8.9613390e-01   2.3562731e-03
  1.1394653e-01   2.9530484e-02
 -2.3906399e-02   1.5586814e-02
  8.8131674e-02   4.7506966e-02
  3.9098628e-02   2.2124844e-02
  1.3071068e-02   3.6807820e-02
 -2.8476421e-02   2.7207633e-02
 -2.7082483e-03   3.1217067e-02
  5.2022893e-02   2.8363908e-02
  5.2413139e-03   4.4605333e-02
  6.6541269e-02   5.7353970e-02
  3.8902164e-02   4.0504567e-02
 -2.2920394e-02   1.4031448e-02
 -1.1294948e-01   7.0423461e-02
 -1.0243582e-01   1.6277317e-02
 -1.8761265e-01   3.0775262e-02
 -1.1662997e-01   2.9242776e-02
  8.0676101e-02   1.3958297e-02
  1.2814987e-01   1.8895369e-02
 -3.8849391e-02   2.5662942e-02
  8.2917318e-02   2.3743242e-02
 -2.5314555e-01   4.0119287e-02
  4.1943822e-02   2.5526606e-02
  3.3716291e-02   2.2802658e-02
 -1.5525773e-02   3.0468957e-02
  2.4585705e-02   2.1313079e-02
  7.0708700e-02   2.5978589e-02
 -5.3007908e-02   5.8312818e-02
  6.8436134e-01   1.5250554e-03
 -1.5862398e-01   9.3095942e-04
  2.6976594e-01   6.7579094e-04
 -3.4782612e-01   1.7861740e-04
 -8.2420355e-01   8.5602206e-04
  1.3406209e+00   1.5820850e-03
 -3.3409417e-01   4.7357194e-03
  5.2002126e-01   1.3094290e-02
 -6.0117576e-02   1.3092558e-02
  9.2264578e-02   4.8968652e-03
  9.0842915e-01   1.6214263e-02
  9.6038193e-02   3.4218583e-02
 -3.3068264e-01   2.3684181e-02
 -9.1547087e-02   1.6473141e-02
  2.8444517e-01   2.3244658e-02
  8.6109720e-02   2.1887884e-02
  7.5087482e-01   2.1983366e-03
  5.9849280e-01   7.6441616e-03
 -6.1214024e-01   9.0322960e-03
 -2.6458140e-02   1.4666758e-02
 -2.5209654e-02   1.3272840e-02
 -3.6549058e-02   8.5130641e-03
 -9.6225969e-02   3.2842021e-02
  5.8540948e-02   4.3404289e-03
  9.8923445e-01   3.1452938e-03
  9.7844405e-03   7.2635119e-03
  7.7694580e-02   4.9223185e-02
 -8.8187002e-02   4.1237369e-02
  7.8672566e-02   1.7649878e-02
  4.5864459e-02   2.9920729e-02
  1.0827678e-02   1.4257725e-02
  9.7133785e-02   1.0890548e-02
  1.8277928e-02   2.7073005e-02
  2.2235058e-02   2.2845682e-02
  1.3385354e-02   2.3884019e-02
 -1.8298359e-01   1.7749960e-02
 -1.8969294e-02   2.6290027e-02
  7.7582829e-02   7.0533487e-03
  5.3281322e-02   1.1674108e-02
  5.8371155e-03   3.8587272e-02
 -6.4268738e-02   4.6795469e-02
  7.0032135e-02   3.4959238e-02
 -4.3061391e-01   1.6065198e-03
 -1.9142456e-01   6.1150774e-04
  5.4505104e-01   4.8612975e-04
  2.7571973e-01   5.7122653e-04
 -2.3389755e-01   1.0345479e-03
 -5.5896644e-02   1.7893307e-03
 -2.4789827e-01   5.7065103e-04
  7.0519984e-02   5.6039141e-03
  1.9109800e-01   1.0540154e-02
 -6.1640915e-02   8.1777677e-04
 -2.5649324e-02   3.7436392e-03
  3.5737474e-02   9.0463897e-03
  1.2132416e-01   9.7288135e-03
 -9.4871465e-03   2.0261271e-02
  1.5667239e-01   9.3479101e-03
 -2.0543871e-02   1.4475200e-02
  8.6876750e-01   2.6669924e-03
  9.2110741e-01   5.4206350e-03
 -6.6696487e-02   8.3467374e-03
 -8.8959172e-02   2.2950729e-02
  3.5939835e-02   1.9711222e-02
 -1.9059695e-02   5.9711868e-03
  1.0747550e-01   2.1060858e-02
  1.3253492e+00   2.0586976e-03
  6.7601658e-02   3.2383525e-03
 -1.2662300e-01   1.9115699e-02
 -2.8903008e-01   1.6777290e-02
  6.4715100e-03   1.0866939e-02
  1.2644006e-01   1.4542007e-02
  2.0161865e-02   2.7758025e-02
  1.5703526e+00   1.1181054e-03
 -6.5150177e-01   4.4539548e-03
 -3.7982136e-03   9.3247350e-03
 -5.0613940e-01   1.4944707e-02
 -1.0024600e-01   9.7861663e-03
 -2.2958453e-01   1.9909287e-02
  1.8506552e-01   5.9061594e-02
 -9.2239141e-02   4.5126975e-03
  5.7346511e-01   1.8052347e-02
 -6.5002604e-03   1.4512551e-02
 -8.2451262e-02   1.8232701e-02
  1.8552747e-01   5.4812226e-02
  3.9365847e-02   2.7185293e-02
 -9.5288128e-02   1.6901119e-02
 -2.4125168e-02   6.2987376e-03
  7.5401559e-02   1.2387932e-02
  4.4151947e-02   1.3329436e-02
  1.0454929e-01   5.4832563e-02
 -3.9567731e-02   1.5984867e-02
  6.0500082e-02   1.8793032e-02
  9.2562780e-02   1.7878097e-02
 -1.5044408e-03   2.6272899e-02
 -8.1462543e-03   4.2282291e-02
 -8.0699116e-02   2.2166139e-02
 -1.1856873e-01   2.9253578e-02
 -1.2219243e-01   6.5278485e-02
  9.0200081e-02   2.0066462e-02
 -1.6489093e-01   1.1923635e-02
  3.6735885e-02   2.1310860e-02
  6.4204976e-02   9.7646555e-03
 -9.7546224e-03   4.1555826e-02
 -1.3314290e-01   4.9158376e-02
  2.2393689e-02   2.1030610e-02
  2.2670400e-01   2.8388619e-02
  3.4684397e-02   2.3306841e-02
 -2.2543432e-02   3.1727996e-02
  8.3249837e-02   4.3914169e-02
 -1.7261775e-01   6.5514082e-03
 -9.9495873e-02   2.1622796e-02
 -1.0287587e-01   2.9814079e-02
 -1.4479403e-01   2.5101075e-02
 -6.3850763e-03   4.1896023e-02
 -5.2065115e-02   1.4446822e-02
  7.2845645e-02   9.2610829e-03
  8.1610575e-02   9.2843464e-03
  2.7558357e-02   2.1262441e-02
 -1.3893265e-01   5.3904142e-02
 -1.2222514e-01   2.5676258e-02
  9.4433259e-03   4.1664567e-02
  9.3582598e-03   2.5882315e-02
 -5.1695310e-02   4.6207413e-02
  8.3426230e-02   3.4876335e-02
 -6.4474046e-02   3.2658450e-02
  1.7288865e-01   3.2251194e-02
  3.5207260e-01   3.8598236e-03
  5.8541757e-01   7.5992993e-03
  4.9656615e-01   1.5555519e-03
  4.4011250e-01   1.9642769e-03
 -9.4150908e-02   8.0495914e-03
 -8.3992638e-02   8.8910395e-03
  6.6646636e-01   8.6308802e-03
  4.3842908e-02   1.9218966e-02
 -1.0638527e-02   3.7269574e-02
  1.0814898e-01   7.8572864e-03
  1.0225409e-01   1.5898788e-02
 -2.0634767e-02   3.7736006e-02
 -3.2667767e-02   2.7843283e-02
 -6.9931792e-03   1.7576812e-02
  5.6796879e-02   4.5087088e-02
 -2.7794000e-02   1.3550110e-02
 -7.7558100e-02   8.7626064e-03
  1.7620767e-02   1.6277770e-02
 -2.4754448e-02   3.2606084e-02
  5.1332109e-02   3.4664866e-02
 -1.4347509e-02   3.7360329e-02
 -7.9637527e-02   2.9308610e-02
 -3.0959098e-02   2.3607450e-02
 -4.2117212e-02   1.6215188e-02
  1.6672723e-01   8.8958386e-03
 -7.1098506e-02   3.3428997e-02
  6.8045653e-02   3.8189445e-02
 -7.7392206e-02   3.1172225e-02
 -5.3530250e-02   2.8877903e-02
 -8.1986010e-02   3.8074687e-02
 -3.4347600e-01   1.8063329e-02
  1.1796260e-01   1.1166260e-02
 -1.8761782e-02   3.5596460e-02
 -1.1531200e-02   3.8828023e-02
 -8.4912460e-03   1.4568140e-02
  9.1331393e-02   3.9633546e-02
 -1.3543697e-01   1.3437873e-02
  5.4760106e-02   2.0671207e-02
  1.9686462e-02   2.7004115e-02
 -4.9242087e-02   1.5045379e-02
  3.7337381e-02   2.6846420e-02
  8.1832290e-02   1.1714450e-02
  1.6695251e-01   1.4015731e-02
 -7.2336495e-02   1.7397221e-02
  1.8875478e-01   5.4038060e-03
 -1.4778809e-01   1.2346547e-02
  1.5811679e-01   4.0412392e-03
 -4.7865931e-02   1.8107144e-02
 -5.6254450e-02   2.0727370e-02
 -2.5878897e-01   2.5385980e-02
 -1.8768799e-02   2.0835724e-02
 -4.1071631e-02   1.2062090e-02
 -7.5147994e-02   8.2727140e-03
  1.7444285e-02   1.9522872e-02
 -1.9854821e-02   1.6622778e-02
 -6.6325471e-02   2.8370075e-02
  1.5718378e-02   2.7167071e-02
  1.8575957e-01   1.1687901e-02
 -1.2447743e-01   1.2826316e-02
 -9.1201268e-02   1.4548839e-02
 -1.0099866e-02   3.7994128e-02
 -3.0486878e-02   2.2730293e-02
 -1.0997809e-02   3.5680126e-02
 -8.4653245e-03   2.2576759e-02
  4.8575398e-01   4.9971640e-03
  9.5928796e-02   1.5055664e-02
  7.2697535e-02   2.9944623e-02
  1.2986726e-01   1.6925324e-02
  7.5091504e-02   2.0626815e-02
  2.3831921e-02   2.8992327e-02
  5.4695515e-04   2.0076429e-02
  1.6421072e-01   1.7407024e-02
  7.0902295e-02   1.1048560e-02
  1.8236107e-01   2.8083038e-02
  2.0521332e-01   5.8989625e-02
  5.3692958e-03   5.2306138e-02
 -6.3084058e-02   3.2454006e-02
 -2.7891251e-04   3.7323132e-02
 -5.3506210e-02   2.1417769e-02
 -1.0116988e-01   2.2599876e-02
 -1.2806176e-01   1.7944075e-02
  1.1921757e-01   2.0352539e-02
  9.5133642e-03   1.5768178e-02
 -2.0591944e-02   2.7030280e-02
 -1.8344125e-02   4.8701361e-02
  8.0345459e-03   2.4767332e-02
  1.0941526e-01   2.7367372e-02
 -4.1265182e-02   2.1795968e-02
  3.2945839e-01   2.4917861e-02
  1.2330799e-01   2.7360106e-02
  1.4292997e-01   1.9176723e-02
  1.0898335e-02   2.6213264e-02
 -2.4316546e-01   4.0641953e-03
  4.4981495e-02   3.7303939e-02
  2.1502553e-02   3.0879056e-02
 -8.1121385e-02   2.3461731e-02
 -1.0132605e-01   3.8382996e-02
 -7.1957953e-02   3.9806321e-02
  8.5668899e-02   2.6481727e-02
  1.3489433e-02   3.9837476e-02
  7.3179686e-01   3.0147915e-03
 -4.3396629e-02   3.7591569e-02
 -5.3229585e-04   1.4819824e-02
 -5.3498469e-02   3.4690246e-02
  2.4998337e-03   3.8785391e-02
 -1.1927002e-01   3.1901356e-02
 -2.2448227e-03   9.0584354e-03
 -5.1612366e-02   2.1015225e-02
  1.0941198e-01   1.9013949e-02
 -7.2167717e-02   2.1453662e-02
  7.1071938e-02   3.9978836e-02
 -1.1640864e-01   3.3793505e-02
  8.5843638e-02   1.7147778e-02
 -1.8102640e-02   4.8503391e-02
  2.7001016e-03   1.9061815e-02
  6.9935389e-02   1.1788890e-02
  5.0631147e-02   3.2661121e-02
 -1.9718178e-02   2.0974595e-02
 -2.1678229e-01   4.0133104e-02
 -8.1488118e-02   3.7398372e-02
 -2.3430972e-01   2.7392181e-02
 -4.0461645e-01   1.6630664e-02
  2.8912663e-02   1.6837588e-02
  5.2883852e-02   1.7043326e-02
 -1.0315198e-01   5.7062447e-02
 -3.4989685e-02   2.1084063e-02
  1.9649428e-01   2.9951364e-02
  5.1345821e-02   4.5199987e-02
 -3.4767132e-02   4.1589249e-02
 -5.1152363e-02   8.8407407e-03
 -8.5224085e-02   2.3733499e-02
 -6.0558204e-02   2.1339303e-02
 -6.5560050e-02   3.5284635e-02
  1.2746660e-01   3.7291449e-02
  9.2380188e-02   3.9399233e-02
  1.5336262e-01   2.5951540e-02
 -1.2760444e-01   1.2879583e-02
  2.0992214e-02   4.2292420e-02
  1.3538539e-02   2.2026679e-02
  9.3940854e-02   2.4327191e-02
 -7.0850290e-03   3.2432985e-02
 -4.9450591e-01   4.3335296e-03
 -2.0799616e-02   1.3427080e-02
 -2.5678346e-01   2.1640547e-02
  7.5969413e-02   3.2146040e-02
  4.0629499e-02   3.8718645e-02
  5.0216585e-02   2.5901368e-02
 -2.4107327e-01   2.4089245e-02
  1.0720823e-01   1.7719919e-02
  6.7969352e-02   2.3399265e-02
  3.9403044e-02   2.6870955e-02
  1.0874042e-02   3.8599916e-02
 -6.4674489e-02   3.5848413e-02
  7.5459309e-02   4.1632630e-02
 -7.6825932e-02   3.0678667e-02
 -4.7764588e-02   2.2081032e-02
 -1.6791670e-01   2.7284067e-02
  2.5583519e-02   2.6517687e-02
  5.2355807e-03   3.4962226e-02
 -9.6463941e-02   6.5045655e-03
  1.7422255e-02   2.8055014e-02
 -8.1640221e-02   1.8756544e-02
 -1.5159967e-02   7.3421061e-02
 -6.4212635e-02   2.7435845e-02
 -4.3538217e-02   3.1302728e-02
 -3.9670453e-03   1.3626619e-02
 -7.0849627e-02   3.4328036e-02
 -1.0192845e-01   2.5961574e-02
 -1.9694954e-02   2.5736235e-02
  2.1774402e-02   2.5395241e-02
  1.9020320e-01   1.6229579e-02
 -8.5991278e-02   1.5340284e-02
 -3.4145850e-01   3.2130536e-02
 -2.2745812e-02   2.0966969e-02
 -6.0894538e-02   1.4737018e-02
  7.6352626e-02   2.7466187e-02
  1.8000111e-02   4.1636009e-02
 -8.0603190e-02   1.6185010e-02
 -2.8826820e-02   2.7110958e-02
  7.9349540e-02   3.6967680e-02
 -3.0502640e-03   3.3856895e-02