 -1.1468509e+00   3.4807224e-03
  4.5631811e-02   9.3654003e-03
 -7.3005521e-01   6.5389862e-03
  1.2794559e+00   8.6061312e-03
 -1.2282002e+00   4.6428121e-03
 -1.7425116e+00   4.0619257e-03
  7.7614629e-01   3.6092277e-03
 -1.2077000e+00   3.9319056e-03
 -1.4252327e-01   1.2168162e-02
 -8.4916359e-01   1.1818775e-02
  3.0055889e-01   1.5555669e-02
 -1.4132504e+00   1.2756516e-02
  1.0255758e+00   6.8706418e-03
  4.4163385e-01   8.9455619e-03
 -1.8468175e+00   9.9958964e-03
 -3.7789282e-01   2.3936521e-02
 -1.5046227e-01   2.0682152e-02
  5.0711119e-01   5.6835422e-03
  6.3901186e-01   2.3872457e-02
  8.4081948e-01   3.2634869e-02
 -1.8941660e+00   4.0869317e-03
 -3.4796247e-01   6.8897605e-03
  7.1499628e-01   6.7874007e-03
  3.4114286e-01   2.8448351e-02
 -2.7275079e-01   4.3719716e-02
 -1.8856364e-01   1.9701542e-02
  7.6925957e-01   6.7488514e-02
 -8.9585727e-01   1.5206440e-02
  7.4946624e-01   5.1693387e-02
  8.2809627e-02   4.1836713e-02
 -6.5603644e-01   2.5230262e-03
  4.5517758e-01   2.7256936e-03
 -2.7292987e-02   9.3356883e-03
  5.6465971e-01   6.1615980e-03
  2.4820837e-01   7.6837959e-03
  1.4048145e+00   8.1493510e-03
 -4.3508932e-01   1.3609488e-02
  4.3459496e-01   2.9503251e-03
 -1.1313450e+00   1.8469615e-02
 -2.0270021e-01   1.2500565e-02
  1.7647021e+00   1.1613824e-02
 -2.7562261e-01   5.1812255e-03
 -8.9643441e-02   8.1823505e-03
 -4.6744102e-01   1.8125704e-02
 -4.7344682e-01   2.2276001e-02
  6.7428428e-01   1.5105431e-02
 -3.9674976e-01   7.5326390e-03
  7.6269038e-02   1.2413406e-02
 -4.0006241e-01   1.0652245e-02
  4.3656155e-03   1.7127953e-02
 -1.0383612e+00   3.2246625e-03
  4.1871586e-01   6.4702211e-03
 -5.1249757e-02   8.4605496e-03
  3.6834347e-01   2.8408598e-03
 -3.5191837e-01   3.0364331e-02
  7.2352864e-02   1.3075876e-01
  6.3080883e-01   4.7817577e-02
  7.8027439e-01   1.2976914e-02
 -7.5774038e-01   9.8925114e-02
 -3.9995736e-01   6.5369783e-03
 -1.4343312e-01   3.4470174e-02
 -1.7917909e-01   7.7598758e-02
 -6.3572705e-01   5.6857336e-02
 -4.6944087e-03   5.0738543e-02
 -4.2042181e-01   3.0318320e-02
  1.9650643e-01   2.5176251e-01
 -4.5778325e-01   1.0018364e-01
  1.4605148e-02   5.6751680e-02
 -5.5573726e-01   6.6500180e-03
  1.6252699e-01   3.0776195e-02
 -9.2355311e-01   7.3778965e-02
 -6.0561204e-01   6.3812435e-02
 -9.5415507e-03   7.1442343e-02
  7.8311078e-02   1.2331760e-01
  1.1007358e+00   9.4765071e-03
  6.8276894e-01   2.4339387e-03
 -2.6740786e-01   2.3996582e-02
 -1.3578609e-01   6.2016137e-02
 -8.1128530e-02   1.5693396e-01
  5.3292441e-01   3.7120052e-02
 -6.5083498e-01   1.0724497e-01
  2.2210407e-01   1.0831250e-01
  1.5488921e-01   3.1769719e-02
  3.0974036e-01   6.4845763e-02
  1.6736563e-01   4.4812277e-02
  2.7243894e-01   1.3976227e-01
 -1.0657532e-01   4.1048001e-02
  5.6663537e-01   1.0213738e-02
 -6.6655479e-02   2.0057747e-02
  4.1098851e-01   4.0447265e-02
  8.2512552e-01   9.1113048e-03
  1.7982733e+00   1.3381159e-02
  3.5846308e-01   1.1388019e-02
 -1.1617532e+00   4.4207224e-03
  7.6735884e-01   1.7601632e-02
 -2.8683555e-01   3.4933500e-02
 -3.7596127e-01   2.3254061e-02
  8.9139110e-01   1.0133553e-02
  9.8693371e-01   3.7641510e-02
  7.7981997e-01   5.3721402e-02
  5.9868167e-03   2.7625851e-02
 -3.4963802e-01   2.2118432e-02
 -5.1004070e-01   8.6218948e-03
  7.1042764e-01   4.5968998e-02
 -4.8003820e-01   3.8641632e-02
 -9.1126716e-01   1.2799342e-02
  8.0921423e-01   2.4329841e-02
 -2.6609299e-01   4.2221513e-02
  1.0025272e-01   7.5695753e-02
  4.3255866e-01   6.7844070e-02
 -1.4620930e+00   2.5371308e-02
 -9.6176100e-01   1.1859493e-02
  2.6056380e-04   1.1332603e-02
  2.0099721e+00   1.1590682e-02
 -3.6649162e-01   2.8664358e-02
  3.1065427e-02   6.5973677e-02
 -6.8260998e-01   4.7257720e-03
 -4.5012230e-01   4.3710779e-02
  1.2417530e-01   1.5372926e-01
 -1.5603250e-01   1.3751967e-01
  3.1578508e-01   3.9305384e-03
 -1.6361449e+00   4.0556742e-03
  1.7190490e+00   1.2855819e-02
 -5.6330138e-01   8.5787075e-03
  1.6562465e+00   1.7404297e-02
  5.5741048e-01   5.9871352e-03
  5.9021544e-01   2.4795508e-02
 -4.3848962e-01   6.7085740e-03
 -1.4463881e-01   2.4578201e-02
 -2.7345705e-01   3.5401326e-02
  7.8770739e-01   7.8180460e-03
 -3.0365464e-01   9.9331113e-03
  6.5716285e-01   2.1154920e-03
  1.1919018e+00   2.6650904e-02
  5.0943059e-01   4.5255639e-02
 -4.0746108e-02   1.5516692e-02
  1.3178339e+00   1.8315425e-02
  9.5191264e-01   5.5613951e-03
  1.1095015e-01   2.4769548e-02
  3.8153109e-01   6.0294386e-02
 -6.0446493e-02   2.1436499e-02
  2.5993972e-03   2.2483120e-02
  2.4763407e-01   2.9058194e-02
  2.3295151e-01   2.4145840e-02
 -7.4628937e-01   9.8395199e-03
 -9.6430624e-01   5.4590959e-02
 -5.0539964e-01   3.1428725e-02
  1.6487853e-01   1.0437794e-02
 -1.0155819e-01   1.2646030e-01
  9.2201108e-01   4.5406990e-02
  3.4112442e-01   6.0924143e-03
  6.9322306e-01   2.6882808e-03
  7.2894216e-01   2.8639345e-03
 -5.0763196e-01   8.8437768e-03
 -6.1291922e-02   1.2294798e-02
 -2.5472027e-01   3.0336678e-02
  8.1457239e-01   1.1959811e-02
 -2.1245446e+00   1.1331936e-02
 -1.4188640e+00   9.7746262e-03
  2.1403448e-01   7.5712577e-03
 -4.4624862e-01   8.4863035e-03
 -9.6446615e-01   1.2980965e-02
  6.4904368e-01   2.0082876e-02
  7.5215077e-01   1.1422860e-02
  6.3037544e-02   2.3878317e-02
 -1.0069655e+00   1.0038069e-02
  2.1422407e-02   3.9183140e-02
  4.9268463e-01   2.8663110e-02
  5.8584227e-03   2.7119400e-02
  1.6969536e-01   4.2210184e-02
 -4.6750361e-01   1.4394029e-02
  1.9905232e+00   1.4942146e-02
 -8.3470488e-01   2.2101063e-02
 -1.8968579e-01   2.7132019e-02
  1.3157879e+00   4.8301235e-02
 -6.0149139e-01   4.9877875e-02
  2.7126005e-01   6.5765724e-02
 -8.8289821e-01   3.7856247e-02
 -2.6513803e-01   9.4691832e-03
  3.7714186e-01   4.0806077e-02
 -5.3338450e-01   3.3634897e-02
  2.3736703e-01   5.1206186e-02
 -5.0130898e-01   2.1754680e-02
  1.2650498e+00   2.6321011e-02
  4.3637374e-01   1.4312374e-02
 -1.3757189e-01   7.7209130e-02
  7.7111667e-01   2.0047538e-02
 -1.2185931e+00   1.6985446e-02
  1.6004601e-01   2.7944623e-02
 -2.5529757e-01   8.2489930e-02
 -2.3756042e-02   5.6112513e-02
  4.0220702e-01   3.9351139e-02
 -5.6771195e-01   1.8898647e-02
  3.3393934e-01   5.9701242e-02
  4.6031901e-01   2.7522456e-02
 -7.5861585e-01   8.9779496e-03
  2.3773804e-02   7.3833123e-02
 -1.8443301e+00   2.5635522e-03
 -3.1730741e-02   9.0747014e-02
  7.2989392e-01   4.8624780e-02
 -1.8705454e-02   3.8459674e-02
 -1.8722039e-01   6.0624693e-02
 -6.6334480e-01   1.7827559e-02
 -1.1194153e-02   4.4646040e-02
  1.4492702e-01   9.2820928e-02
 -7.0079461e-02   1.0868636e-01
 -8.3759643e-02   1.7295088e-01
 -3.6534247e-01   4.4934958e-02
  2.9279909e-01   4.8754491e-02
 -3.0302432e-01   2.0680515e-01
  1.6535583e+00   7.5446996e-03
 -1.7512696e+00   1.8710731e-02
  3.3047035e-01   1.7651245e-02
 -3.4473129e-02   1.7578753e-02
  1.4619584e+00   1.3104943e-02
 -1.6181601e+00   3.6064237e-02
  6.1399758e-01   1.1514427e-02
  1.3148896e-01   1.7830703e-02
 -1.6811097e-01   6.0052387e-02
  1.1990224e+00   1.1011423e-02
 -5.7930279e-01   4.8443809e-02
 -1.5207723e-01   2.7525524e-02
  7.4663240e-01   3.3983968e-02
  1.6164925e+00   3.3434030e-02
 -1.6975975e+00   1.6644435e-02
 -1.9610994e+00   3.0030200e-02
  6.1781740e-01   7.2896846e-02
  5.1707369e-01   5.2199969e-03
 -3.2376617e-01   1.1567384e-01
  4.0361017e-01   5.2820347e-02
  3.7555552e-01   3.6267143e-02
  7.5037652e-01   3.1832226e-02
 -1.2142093e+00   4.0897321e-02
  5.6821585e-01   8.3796300e-02
  4.3751857e-01   5.7913527e-02
  1.7860813e-01   1.5918940e-02
  1.9199972e-01   1.4046625e-02
 -6.0171360e-01   1.3863653e-02
 -1.3078179e+00   2.2006091e-02
  3.7234548e-01   1.2286837e-01
 -4.4941258e-01   1.4724548e-02
 -1.3475425e+00   1.0050629e-02
  5.6370342e-01   5.8707627e-03
  2.9032418e-01   8.8528311e-03
 -8.6023253e-01   2.0298682e-02
 -6.6199219e-01   2.0022850e-02
 -5.5384421e-01   1.9954277e-02
  1.0089893e-03   1.0878857e-02
  5.1300067e-01   5.4958168e-02
  7.6835223e-02   9.4086900e-03
 -1.5571740e+00   8.0162743e-03
  6.9545525e-01   7.7942507e-03
 -1.2359239e+00   1.3124499e-02
 -1.6381037e-01   6.1427008e-02
 -8.3321147e-04   7.8896195e-02
 -1.1417207e+00   9.6137403e-03
  5.1681775e-01   2.9955531e-02
 -9.4913207e-02   5.3724848e-02
 -6.2542391e-01   1.3065074e-01
 -4.8399010e-01   2.3377258e-02
 -3.1570113e-01   2.2115603e-02
  1.4350389e+00   2.5113491e-02
  2.1774840e-02   1.7017441e-02
  7.7173519e-01   6.6024344e-03
 -1.5076201e-01   3.5823476e-02
 -3.8109481e-02   1.7687343e-02
  4.3828197e-02   5.8463555e-02
  2.4777194e-02   3.4946740e-02
  4.1582558e-01   8.8453069e-02
  1.9851381e-01   2.5266925e-02
 -1.0006341e+00   1.9892989e-02
  3.8469177e-01   8.0233384e-03
  3.9789464e-02   1.2614327e-02
 -1.4786345e-01   1.4160927e-02
  8.8954717e-02   4.1908664e-03
  1.0449322e+00   1.9588359e-02
 -5.1808596e-02   3.2353170e-02
 -6.6882992e-01   7.1848854e-03
 -8.7920412e-02   4.2129848e-02
  5.4979712e-01   6.2276594e-02
 -2.8388929e-01   3.7837528e-02
  1.0858617e+00   1.6004642e-02
  1.0618929e+00   2.2293795e-02
  5.5086011e-01   7.1171910e-02
  1.7268121e-01   2.3160603e-02
 -3.4256232e-01   4.5392044e-02
  1.8172064e-01   3.7354700e-02
  6.4082521e-01   7.2599217e-02
 -2.9821932e-01   1.6062170e-02
  5.5930071e-02   3.3547331e-02
  7.1174711e-01   3.2822792e-03
  8.0584558e-03   2.3499645e-02
 -5.9554386e-01   3.4207933e-02
 -1.2101114e-01   3.4415059e-02
  3.3976864e-02   2.5730884e-02
  5.3114150e-02   5.5684038e-02
  2.6131496e-01   8.8324353e-02
  6.0995120e-01   1.5946193e-02
 -4.7941059e-01   5.9775755e-02
  5.1080994e-02   1.8944499e-01
  1.4130220e+00   6.9723919e-04
  5.1932895e-01   3.2659478e-03
 -1.2684268e+00   1.9926386e-02
 -8.6064982e-01   2.1721635e-03
  1.9938390e+00   3.0384629e-03
  1.6823548e+00   1.3364420e-03
 -1.8104845e+00   2.1235377e-03
 -8.5322934e-01   6.2620342e-03
 -1.0478113e+00   2.8978041e-03
 -6.6637093e-01   2.7537169e-03
  1.8328212e-01   5.2246888e-04
 -5.9024844e-02   2.0818730e-04
  1.8208314e-03   1.0686098e-03
  3.2940678e-02   1.0657625e-04
 -1.9762157e-01   1.4132950e-03
  2.7300245e-01   3.7028387e-04
  2.8546939e-02   1.6064501e-04
  1.8195165e-02   1.2795831e-04
  5.9210107e-02   6.2676932e-04
  3.8363459e-03   6.5678085e-04
 -1.3701179e+00   2.6548930e-02
  7.6538640e-01   2.4716189e-02
  1.8456648e-01   3.2932956e-02
 -1.2831931e+00   1.7666401e-02
  2.6642818e-02   3.3469424e-02
 -3.9447981e-01   9.1648094e-02
 -6.1880416e-01   1.3486278e-02
  4.3370447e-01   1.4961828e-02
 -5.8804822e-01   7.0821866e-02
 -8.8715261e-01   2.5069971e-02
 -1.5318590e-01   1.8285874e-02
  4.6699467e-01   2.0715801e-02
  3.2518950e-01   2.8314512e-02
  8.0743939e-01   2.1573519e-02
 -1.6375451e-01   3.5835225e-02
  7.4067736e-01   6.7904048e-02
  5.3204787e-01   1.6525405e-02
 -1.2157631e+00   1.2739054e-02
  7.9518519e-02   6.8599982e-03
 -4.4901851e-01   9.0329520e-02
 -5.3295231e-01   5.8254292e-03
 -2.5755468e-01   6.4871088e-03
 -3.7121177e-01   1.2234295e-02
 -6.1512834e-01   2.0374462e-02
 -2.4880514e-01   3.3599578e-02
  3.9483190e-01   8.7808803e-02
 -1.4251450e-01   1.2694927e-02
  2.7394179e-01   4.1773368e-02
 -1.5239127e-01   1.1331031e-01
 -1.5031672e+00   4.1454054e-02
  3.4184897e-01   5.4892735e-03
 -2.7904472e+00   1.3262533e-02
  3.1537333e-01   9.2660869e-03
  2.4658971e-01   4.4205040e-03
  1.2562625e+00   9.6135177e-03
  9.0416521e-02   4.6810992e-02
  5.9600055e-01   1.3776246e-02
 -5.1141340e-01   1.2219845e-02
 -1.4233838e+00   4.0924065e-02
  7.9075587e-01   2.7690651e-02
 -1.3699768e-01   1.6759127e-02
 -7.0598948e-01   5.3270236e-03
  1.0324059e+00   6.3074664e-03
  1.7403320e+00   9.5657380e-03
  1.6559044e-01   5.2692373e-03
 -1.3510870e+00   2.8516596e-02
  1.1665006e+00   8.2203709e-03
 -4.2749590e-01   1.0091525e-02
  6.8928581e-01   4.5369677e-03
 -7.3276544e-01   2.2503303e-02
  7.2180164e-01   1.8661752e-02
 -3.5606009e-01   8.1068883e-03
  1.3999816e+00   7.2743548e-03
 -7.2845584e-01   8.2789613e-03
  1.1446717e+00   1.1185073e-02
 -9.3846697e-01   6.8809830e-02
  1.1832777e+00   2.6342243e-02
  5.1117349e-01   2.2219719e-02
  1.2005783e+00   5.8923967e-02
  1.6236961e-01   4.1261598e-02
  3.4833661e-01   7.3423842e-03
 -1.5727791e-01   9.7790379e-03
 -4.6771768e-01   6.6536474e-03
  2.0860691e+00   1.1184303e-02
  7.3632216e-01   1.5438741e-02
 -1.2481146e+00   3.2622602e-02
 -9.3345499e-01   1.6337691e-02
  1.1308286e+00   1.5922965e-02
 -5.5756408e-01   5.0021626e-02
  3.7371823e-01   1.2594520e-02
 -1.1506600e+00   1.7291285e-02
  2.6390669e-01   9.9492641e-03
 -1.4343292e+00   1.0092258e-02
 -1.1334571e+00   8.6614760e-03
 -9.8257381e-01   8.8811116e-03
  5.4396158e-01   2.3016490e-02
 -5.7984245e-01   1.0918519e-02
  1.9326720e-01   6.4596422e-03
  8.9556837e-01   8.1141284e-03
 -1.3433266e-01   1.9007504e-02
  2.3501228e-01   1.2158514e-02
  6.3187879e-01   3.9385534e-03
  1.1648934e-01   4.0320526e-03
  1.4248563e+00   1.0328825e-02
 -1.2335474e+00   1.5272969e-02
  6.3067538e-01   2.8693972e-02
  1.5080336e+00   1.5097681e-02
  8.1427580e-01   2.3442695e-02
  1.6524602e-01   1.8134141e-02
 -5.6412506e-01   3.4777042e-02
  1.1997575e-01   4.1028387e-03
 -4.5062086e-01   1.4048198e-02
 -1.1287572e+00   8.6247995e-03
 -1.6703769e+00   2.1362221e-02
  3.4277496e-01   1.2805421e-02
  1.8734416e-02   7.5750172e-02
 -2.7490427e+00   1.5740756e-02
  6.0213894e-02   1.4778015e-02
  5.6575436e-02   4.8074488e-02
 -3.8802166e-02   2.1140194e-02
 -7.3115098e-01   2.7434666e-02
 -2.6832309e-01   1.3705844e-02
 -1.1560893e+00   1.8209266e-02
  1.1616267e+00   8.1402874e-03
 -2.2801096e+00   3.1983524e-03
  1.5014216e-01   2.0801738e-02
 -2.2788944e+00   1.5746051e-02
  4.1192269e-01   1.3576923e-02
  1.7424532e+00   1.8605849e-02
  2.7388895e-01   7.7561801e-03
  1.0764036e-01   4.2684982e-03
  1.0401934e+00   1.3391694e-02
  3.2221395e-01   1.4013921e-02
 -8.4269720e-01   3.1675473e-03
 -5.5687857e-01   7.1090758e-03
 -2.2320700e+00   1.5045597e-02
  5.4828203e-01   2.6507324e-02
  1.7208438e-01   2.5680721e-02
 -3.7401247e-01   9.8683303e-03
 -1.2821611e+00   1.4551940e-02
 -2.1644783e+00   3.3598663e-03
  1.4202381e+00   9.8909205e-03
 -1.6023482e-01   1.3016543e-02
 -1.4167758e+00   1.0085549e-02
  8.1522703e-01   6.1580036e-03
 -5.2383578e-01   2.5197685e-02
 -9.5274317e-01   3.0239705e-02
  3.6366421e-01   3.9797742e-03
 -7.7423960e-01   6.6333443e-02
  2.7025196e-01   1.6217934e-02
 -7.9277448e-02   2.3559215e-02
  1.6588052e-01   7.0803473e-03
 -2.7659672e-01   1.3048613e-02
 -2.0282950e-01   1.3928433e-02
 -1.0058270e-01   7.0647215e-03
  1.1764992e-02   2.0518009e-02
 -2.0122247e+00   2.3090371e-03
  1.7730248e+00   1.0848504e-02
 -1.3112967e+00   6.4270459e-03
 -8.7160073e-02   1.8652288e-02
  3.0349437e-02   1.6446559e-02
  9.9580771e-01   3.3618666e-03
  7.5526345e-01   3.8398881e-03
 -2.6611012e-01   3.3333933e-03
 -5.5705863e-01   1.0410152e-02
 -2.3624241e-01   8.6153783e-02
 -1.3171669e+00   2.6417945e-02
  2.1894796e-01   2.9607039e-02
 -1.7261264e+00   3.0050840e-02
 -1.6219292e+00   1.3429641e-02
 -1.1048822e+00   4.4776369e-02
 -3.4672406e-01   1.0073400e-01
  8.0145419e-01   2.5678346e-02
 -1.7077692e-01   7.1376577e-02
 -1.9263609e-01   6.4254984e-02
  3.8992986e-01   3.0059101e-02
 -3.8345993e-01   2.4533721e-02
 -5.4171038e-01   4.4685803e-02
 -8.8834256e-02   1.5066735e-01
  1.0207511e-02   7.0944153e-02
 -1.9191180e-01   9.4606392e-02
 -7.6003265e-01   2.5266729e-02
  2.6100171e-01   8.7069139e-02
  5.9442902e-01   1.3094781e-01
 -1.1535535e-01   6.7458294e-02
  3.4161854e-01   6.7527644e-02
 -3.6983085e-01   1.3528457e-02
 -3.2487985e-01   2.1794079e-02
 -9.8125286e-02   1.0774893e-02
 -9.2605770e-01   3.0699935e-02
  9.3351811e-01   7.1910404e-02
 -9.0956211e-01   5.4204084e-02
 -3.1251392e-01   4.9528290e-02
  3.9941472e-01   7.9766870e-02
 -1.7704132e+00   3.3528049e-02
  2.8655466e-01   1.3356695e-02
 -6.2037897e-01   2.8095894e-02
 -2.5221133e-01   1.3680753e-01
 -1.9290635e-02   6.5448396e-02
 -1.0889113e-01   2.3682792e-02
  9.4404435e-01   2.4079154e-03
  4.8694262e-01   4.9598999e-03
 -3.4246531e-01   4.5208717e-03
  2.3633029e+00   5.0844592e-03
 -3.7309813e-01   6.8751693e-04
 -1.4917822e+00   1.5584307e-02
  3.7966170e+00   6.4755920e-03
  1.0422024e+00   3.4216060e-03
  1.0694151e+00   1.2109020e-02
 -1.6287587e+00   8.2194600e-03
 -1.1669576e+00   1.1160290e-02
  2.6868787e+00   7.1649667e-04
  2.1196307e-01   2.1874842e-03
  5.4175889e-01   7.9199951e-03
 -1.7166935e-01   3.0086085e-03
  8.4231988e-02   4.0994384e-03
  8.4063357e-01   3.8206566e-03
 -1.5257326e+00   6.4040506e-03
 -1.1371022e-01   7.3323457e-04
 -7.4103367e-01   4.4498085e-03
 -1.3362879e+00   1.2334257e-02
 -2.6359481e-01   2.0541684e-03
 -3.7367444e+00   3.2792927e-03
 -1.5889826e+00   3.6277836e-03
 -3.7761897e-01   3.7949877e-03
 -2.3795903e+00   1.7428380e-02
 -6.8932980e-01   5.7159704e-03
 -7.3479384e-02   1.4021076e-02
 -1.3755077e+00   3.0151723e-02
 -5.0805175e-01   1.2823268e-02
  3.0236918e-01   4.3901924e-02
 -1.0209915e-01   5.6314129e-02
 -7.2892141e-01   3.2624107e-02
 -6.9884667e-03   3.8663439e-02
  1.0673257e+00   4.2761549e-02
 -1.2265825e-01   6.8881154e-02
  2.5919625e-01   5.4763231e-02
  1.2153708e+00   5.6097720e-02
  3.1732446e-01   7.4937724e-02
  8.3062567e-02   2.6327386e-02
 -3.8703343e-01   7.1194634e-02
 -2.7870575e-01   1.0008340e-02
  8.7908930e-01   4.7242627e-02
 -1.9668230e-01   7.8343295e-02
 -4.5562866e-01   1.7058792e-02
 -2.1316946e-02   5.2971162e-02
 -9.5010877e-01   3.0569762e-02
  5.5643791e-01   3.5900291e-02
  8.1956106e-01   4.1199256e-02
 -9.6556574e-02   1.6921690e-02
 -5.2680856e-01   2.9258564e-02
 -2.0748240e-01   1.3983798e-02
 -1.0245231e+00   2.2406373e-02
 -9.9630743e-01   3.0716054e-02
  5.3364402e-01   3.8578041e-02
  5.5811860e-02   5.9909210e-02
 -3.9595670e-01   1.7477982e-02
  1.0636796e+00   1.0784859e-01
 -6.3322484e-02   1.2344349e-01
 -7.9675472e-01   6.5840743e-02
 -2.8014025e-01   2.6485775e-02
 -6.9580489e-01   1.9509694e-02
  7.3170924e-01   2.0347906e-02
  4.2864233e-03   3.4978721e-02
 -3.1417064e-02   6.1609667e-02
 -1.3833047e-01   5.6504659e-02
 -8.9473414e-01   4.0979389e-02
  5.0105667e-01   1.7770376e-02
 -8.2424712e-01   5.1888160e-02
  3.7178442e-01   5.0296776e-02
  2.3346274e-01   1.6347246e-02
  3.0098680e-02   1.8214412e-02
 -8.0562782e-01   2.3415793e-02
 -2.5143031e-02   2.5932359e-02
  2.3320894e-01   2.7924418e-02
  3.2681671e-01   7.7317238e-02
 -2.8161323e-01   3.0269833e-02
  6.3452786e-01   7.9035111e-02
 -4.8094988e-02   4.1103408e-02
  8.2812923e-01   4.8225086e-02
  3.5594296e-02   7.6377653e-02
 -4.3394309e-01   1.8225815e-02
  5.4614916e-03   8.0583366e-03
  6.9189332e-02   2.6929276e-02
 -6.3762438e-01   6.6258773e-02
  1.0257818e-01   7.2561093e-02
 -6.7668569e-01   7.2823279e-02
  6.7294843e-02   6.9238439e-02
  2.1688960e-01   4.9063683e-02
  3.4974146e-01   7.9834200e-02
 -1.6573794e+00   2.5731209e-03
 -9.0464371e-01   3.8695561e-03
 -4.8067904e-01   1.8456972e-03
 -1.9285707e+00   2.6315853e-03
 -1.6964588e-01   3.9594583e-03
  2.6982446e+00   2.1130737e-02
  4.7292379e-01   1.2879391e-02
 -1.1970861e+00   3.3975716e-03
  1.6141930e+00   2.6893942e-02
  1.1819133e+00   8.8202767e-03
  2.6296983e+00   1.0607623e-02
 -8.2727528e-01   1.7893303e-03
 -2.1645622e-02   4.6974989e-03
 -1.8619045e+00   3.0387267e-03
  2.1264086e+00   4.2909570e-03
  1.5096793e-01   2.9184308e-03
  1.3049480e+00   3.0422353e-03
  1.9506289e+00   2.1577175e-03
 -1.7458206e+00   2.6906605e-03
  2.3922482e+00   1.0953440e-02
  1.1736741e+00   7.5631775e-03
  3.0953813e-01   2.4271491e-03
  3.4916732e+00   4.3252893e-03
  2.6376170e-01   3.6723420e-03
  2.0345303e-01   5.4557566e-03
 -3.4207928e-01   4.6843093e-02
 -2.4536531e-01   3.7171883e-03
 -2.0885183e-02   3.0811587e-02
  1.8806559e+00   1.4275690e-02
 -8.1058681e-01   1.4246017e-02
 -5.8976901e-01   4.8929821e-03
  1.7924194e+00   1.1247337e-03
 -1.0823699e+00   2.1998000e-03
 -2.0008531e+00   2.1455183e-03
 -1.5237701e+00   1.3232237e-03
  9.1183168e-01   2.2786142e-02
  4.5781630e-01   3.1540164e-04
 -9.9283969e-01   8.3532250e-03
 -1.6503723e+00   7.8684818e-03
 -8.8342297e-01   4.3264293e-04
  1.4342723e-02   1.1292793e-04
  1.8063657e-01   5.8827101e-04
  4.2107202e-02   1.6745145e-04
 -1.3167080e-01   6.2861165e-04
  1.8892601e-01   7.9699379e-04
  1.2885010e-02   2.9102634e-04
  8.2825251e-02   5.7659930e-05
  9.1677830e-03   1.8838399e-04
 -2.4840230e-02   7.0706429e-04
  5.0878894e-01   5.9169723e-04
  4.7673503e-01   3.8340758e-03
 -2.4241776e+00   8.9667982e-04
  2.4595942e-01   6.6944626e-03
 -2.8111315e-01   1.1078982e-03
  5.0432473e-01   4.8227115e-03
 -7.3958284e-01   3.0225884e-02
  2.9207987e-01   2.2600951e-02
  2.8003803e-03   6.1837197e-03
  1.3200705e+00   1.2615382e-02
 -5.7451630e-01   8.3801690e-03
  1.3619977e+00   1.3503328e-02
  7.2134322e-01   2.8964901e-02
 -2.9760471e-01   3.1741376e-03
  2.0704273e-02   7.7107889e-03
 -2.1523616e+00   2.3361053e-03
  1.2101340e-01   1.9477071e-02
  2.4070689e-01   6.9880132e-03
 -1.8687578e+00   1.0909002e-02
 -8.5136905e-02   4.3647909e-03
 -3.6590226e+00   3.2286134e-03
  2.6812756e-01   1.1286053e-02
  1.4007570e-01   2.1946875e-02
 -1.9353782e-01   2.6183457e-03
  8.4300935e-01   4.5205923e-03
 -1.0009971e+00   6.3466132e-03
 -2.5743896e-01   5.3426489e-02
  1.0099913e-01   9.3652934e-02
  1.0999275e+00   3.7384227e-02
 -1.2396198e-01   5.0497767e-02
  1.2298396e-01   5.6751393e-02
 -5.2670785e-03   2.4334204e-03
 -3.8608095e-01   8.6779555e-04
 -3.2104710e-01   1.2327897e-03
  1.5148107e+00   3.8590133e-03
  6.7325071e-02   1.0451676e-03
 -1.0428271e+00   5.9883865e-03
 -2.0095701e+00   4.5293481e-03
 -1.6060361e-01   1.2164772e-03
  1.6016960e+00   1.8997322e-03
  8.4682930e-01   1.9863485e-03
  1.0371845e+00   5.6598894e-03
 -1.2232699e+00   2.2298852e-02
 -6.1803579e-01   2.4209311e-03
  2.2150981e-01   4.7894330e-03
  1.6572562e-01   2.2383649e-03
  8.4055826e-02   6.5563284e-03
  9.8474550e-01   7.9534780e-03
 -7.4662322e-01   3.7303497e-03
  2.4163096e-01   1.8503092e-03
 -5.8637172e-01   2.5794250e-03
  1.2488018e-01   5.1928619e-03
  6.8152107e-02   2.3927107e-03
 -4.3248409e-01   3.2529521e-03
  5.4971373e-01   4.7867345e-03
 -1.2442042e-01   2.3315900e-03
 -4.5102438e-01   5.9380468e-02
  5.1746106e-01   1.5380272e-02
  1.7942648e-01   9.0969838e-03
  2.2028878e+00   1.1408243e-02
 -4.8186997e-01   1.7761207e-03
  1.5876199e-01   1.2539784e-02
 -1.0170360e+00   9.5984144e-03
 -1.3324077e-01   1.0971704e-02
 -1.6958994e+00   1.8447606e-02
 -3.5012157e+00   1.4388268e-02
 -1.5531847e-02   6.1218809e-02
 -2.3327959e-01   4.7608167e-02
 -1.4695884e+00   9.5508564e-03
  1.8438040e-01   8.5355584e-03
  7.3724449e-01   1.7019823e-02
  9.5605326e-01   2.4518810e-02
 -6.8331063e-01   7.9619884e-02
 -7.7754706e-01   1.6028712e-02
  4.3143636e-01   5.4368105e-02
 -7.3125255e-01   9.7775701e-03
 -4.9331260e-01   6.4051747e-02
 -9.5343274e-01   8.7262288e-02
 -9.0315604e-01   1.5308633e-02
 -1.3297657e+00   5.7865498e-03
  6.5102750e-01   1.1695291e-02
  1.7939380e-01   2.8294753e-02
  7.1694389e-02   5.2841932e-02
  3.9249989e-01   3.0144952e-02
 -1.0086831e+00   2.4723088e-02
  4.9444422e-01   9.1004223e-03
  7.1716434e-01   4.8641195e-03
 -6.3640192e-02   6.9156289e-02
  2.9746419e-01   6.8516694e-02
 -2.1686869e-02   4.7147106e-02
 -1.2698183e+00   3.3631660e-02
  3.5043681e-01   1.7301964e-02
 -2.4202946e-01   9.0185711e-03
  3.3415809e-01   6.9994383e-02
  2.3418202e-01   2.8667206e-02
  3.5561281e-01   3.9916344e-02
 -1.9324791e-01   1.4225966e-01
  7.3588979e-03   1.3361090e-01
  4.5719796e-01   3.1287011e-02
 -6.9393170e-01   1.1045557e-01
 -7.6672018e-01   4.2298101e-02
 -1.9765623e-01   1.3011277e-01
 -7.8247964e-02   1.2649762e-02
  7.2672069e-01   5.3094648e-02
  2.5209498e-01   3.4505241e-02
  3.0022132e-01   2.0277010e-02
  5.3969198e-01   7.5920187e-02
  4.5525786e-02   6.8668060e-02
 -6.0991878e-03   5.1923778e-02
  1.4801992e-01   2.1089526e-02
  3.0793005e-01   3.5160437e-02
 -3.1328586e-01   3.3081487e-02
 -3.4309712e-01   4.7587175e-02
  2.1447723e-01   3.6154177e-02
  7.6657569e-01   2.9766584e-02
 -3.0857378e-01   3.0534852e-02
  1.1256153e-01   3.4177456e-02
  3.2588024e-02   1.7778742e-01
 -9.1843772e-01   4.6391055e-02
 -8.4210172e-02   8.0533676e-02
 -3.1406119e-01   2.5586331e-02
 -2.8666604e-01   2.9443324e-02
 -9.7943091e-01   3.2874025e-02
 -3.7167698e-02   1.7469078e-02
 -4.5133971e-02   1.1139148e-02
  1.7877820e+00   3.6938474e-02
 -5.7483725e-02   5.2396491e-02
 -3.3970028e-01   8.2174458e-02
 -5.5875424e-02   6.0580209e-02
 -3.3076891e-01   8.5878469e-02
 -1.1585089e-01   9.7596303e-02
  4.7676581e-01   1.3651146e-01
 -1.0154470e+00   9.4277626e-03
 -3.6123562e-01   2.4233028e-02
 -4.1023806e-01   1.9958718e-02
 -1.0766540e-01   1.6503049e-02
 -3.4852406e-01   1.8244955e-01
  7.0816122e-02   9.0277061e-02
  1.3652332e-02   4.0495105e-02
 -1.0398359e+00   5.2416071e-02
  5.8572757e-01   3.5614662e-02
  8.5820854e-02   1.2008499e-01
  3.6508009e-02   4.3244557e-03
 -1.2233087e+00   5.9084445e-02
 -2.5245339e-01   3.3893798e-02
 -1.0360755e+00   6.1254906e-03
  7.1291614e-01   8.6146951e-02
  5.1515317e-01   1.0026970e-01
 -1.2000350e-02   1.3174525e-01
 -1.5340877e-01   1.8756876e-02
  3.8179457e-02   6.7748301e-02
 -6.7590523e-01   3.0607414e-03
  6.1812639e-02   3.6924277e-03
 -2.2251387e-01   7.8705540e-03
 -1.4904244e-03   3.6622328e-03
  2.0433013e-01   3.9269202e-03
  7.7261589e-02   4.2827621e-02
 -2.2386621e-01   4.3998949e-02
 -2.1440709e-01   8.0274027e-03
  1.8763949e+00   1.4691746e-02
  1.4315351e+00   2.1096600e-02
 -3.7105179e-01   2.0490052e-02
 -1.4584227e+00   4.0974855e-02
  5.6407183e-01   5.6744884e-03
 -2.1278369e+00   2.2789047e-03
 -5.2499592e-01   6.5708468e-03
 -1.9425671e+00   3.7940010e-02
  8.7923956e-01   4.3341361e-02
  1.2475797e+00   1.5048255e-02
 -1.7187686e+00   4.7333776e-03
 -2.4647790e-01   8.7173218e-03
 -2.2606160e-01   1.9289583e-02
  3.0586550e-01   3.3430938e-02
  1.3441023e+00   1.3387495e-02
  6.1333483e-01   1.6849538e-03
  1.7684884e+00   5.4445765e-03
  4.6917608e-01   6.5203227e-02
 -1.0406025e-01   8.7974928e-02
 -3.4929711e-02   3.8977508e-02
  6.3418013e-01   4.5095600e-02
  4.7062999e-01   4.1639902e-02
 -5.1119030e-01   9.3071960e-02
 -4.8168948e-01   3.8469844e-02
  3.8064981e-01   1.1309494e-01
 -4.1377613e-01   7.1011916e-02
  3.1286845e-01   1.0262530e-01
 -2.2961785e-01   1.4897799e-01
  2.7580398e-01   1.4702892e-01
  3.0805108e-01   1.1457551e-01
 -8.0902942e-02   1.4547321e-01
  2.8161156e-01   1.1920437e-01
 -4.3198138e-01   3.0811137e-02
  7.8843847e-02   5.9566468e-02
 -9.8651767e-01   4.9966112e-02
 -1.9182913e-01   1.8223600e-02
  7.2588518e-02   1.2572317e-01
  1.8925726e-01   5.0185118e-02
  1.1937811e+00   4.5566879e-02
 -1.1610129e-01   2.0874251e-02
 -1.1244029e-01   7.9663031e-02
 -5.4074717e-01   6.3522592e-02
 -1.0532845e+00   5.7358339e-02
  1.0672466e-01   5.1543336e-02
 -5.3936332e-01   1.4523531e-02
 -1.5983735e-01   6.9441885e-02
 -1.7440668e-01   5.4563519e-02
  5.6582455e-02   5.6177047e-03
  3.0138871e-01   9.3599513e-02
 -2.7964702e-01   9.8210268e-02
 -1.3350846e-01   7.8843981e-02
  2.4461201e-01   5.4849572e-02
  3.8648027e-01   7.4936594e-03
 -1.6230876e+00   5.6531355e-03
 -5.0925362e-01   1.3650227e-02
  6.5012866e-01   4.8072482e-03
  4.8190448e-02   5.3775101e-03
  3.3003971e-01   2.0953078e-02
  3.8606560e-01   1.6049126e-02
 -9.0731889e-01   8.3742300e-03
  6.7601877e-01   2.0752126e-02
 -2.1860528e+00   1.3925858e-02
  7.6770745e-02   1.4086264e-02
 -2.1067379e-01   1.7966753e-02
 -1.7263905e+00   9.0071829e-03
  6.9899970e-01   5.6612189e-03
 -9.1618013e-01   4.3411725e-03
 -6.1521930e-01   4.3994829e-02
  1.0365584e+00   3.7949257e-02
 -9.7687447e-01   1.8871063e-02
 -1.0023354e+00   3.7762742e-03
 -5.1067358e-01   1.8688314e-02
  4.8979215e-02   7.2366544e-03
 -3.9150417e-01   3.7004333e-02
 -2.0774176e+00   1.2282014e-02
 -1.0316330e+00   1.2708203e-02
 -1.2329361e+00   1.0387028e-02
 -4.5635226e-01   4.5763873e-02
  4.9974135e-01   4.0604245e-02
 -3.1743222e-01   7.3238127e-03
  1.2498854e+00   6.8753481e-02
  2.4416186e-01   4.7242351e-02
  5.1657397e-01   4.1550837e-02
  6.5237522e-01   3.7857763e-02
  2.6787215e-01   7.1227677e-02
  1.9223100e-01   2.2014175e-02
 -8.7337637e-01   3.6240209e-02
  2.1880093e-01   6.3379645e-02
 -5.6648951e-02   5.8818825e-02
  2.6699874e-01   2.0833921e-02
  1.0565528e-01   1.1665973e-01
  3.7288044e-02   4.7527190e-02
  1.8572630e-01   4.4640109e-02
 -8.8126659e-01   2.6703466e-02
 -5.2119493e-02   3.1139676e-02
 -5.5372160e-02   7.6044269e-02
  4.0329052e-03   2.2178216e-02
  2.5095889e-01   6.5835632e-02
 -1.0672803e-01   5.1304147e-02
 -5.1537877e-01   7.4515611e-02
 -1.4019191e-01   3.2989815e-02
 -9.2124051e-01   4.7725599e-02
 -9.5360488e-01   4.8353001e-02
  1.0280437e-01   6.6602536e-02
 -5.6671500e-01   1.5338598e-02
  5.9073299e-01   1.7787036e-01
  1.4031060e-01   8.0008253e-02
  9.9800818e-02   4.6141751e-02
 -1.8403043e-01   6.1401803e-02
  1.2510755e+00   3.4434799e-02
  5.7562023e-01   1.3286357e-01
 -2.7224842e-01   1.3803211e-01
  2.6819569e-01   2.3301497e-02
 -1.5243589e+00   7.3137605e-03
 -8.1412464e-01   8.7790964e-03
 -1.0875559e+00   1.4708720e-02
  2.1650870e-01   7.8341328e-03
  7.3488766e-01   2.2420330e-02
  6.4027816e-01   5.9831064e-02
  1.8750025e-01   3.2243659e-03
  2.5335915e+00   4.5208111e-02
  8.4296751e-01   8.0416296e-03
  1.2028966e+00   1.5576494e-02
  2.6517487e-01   3.4286503e-02
  1.5526185e+00   1.8387917e-02
 -4.6771002e-01   2.3863476e-02
 -1.1873756e-01   1.6757487e-03
 -6.6557950e-01   5.4510102e-02
 -5.4896332e-02   6.8139791e-02
  7.7303298e-02   1.6246425e-02
 -3.9889917e-01   2.6594134e-02
  1.7395705e-01   1.2816854e-02
  1.4388539e-01   1.8258078e-02
 -1.5219563e+00   6.4605661e-02
 -2.6289639e-01   1.5309276e-02
 -5.8218914e-01   1.5964210e-02
  8.5445508e-02   1.0288130e-02
  5.7675326e-01   7.1485505e-02
 -1.6110256e-01   9.6648917e-02