 Job started on host huangGPU
 at Tue Mar 19 10:08:37 2024

 +-------------------------------------------------+
 |                                                 |
 |      CCC   AA    SSS  TTTTT  EEEEE  PPPP        |
 |     C     A  A  S       T    E      P   P       |
 |     C     AAAA   SS     T    EEE    PPPP        |
 |     C     A  A     S    T    E      P           |
 |      CCC  A  A  SSS     T    EEEEE  P           |
 |                                                 |
 +-------------------------------------------------+
 |                                                 |
 | Materials Studio CASTEP version 2023            |
 | Ab Initio Total Energy Program                  |
 |                                                 |
 | Authors:                                        |
 | M. Segall, M. Probert, C. Pickard, P. Hasnip,   |
 | S. Clark, K. Refson, J. R. Yates, M. Payne      |
 |                                                 |
 | Contributors:                                   |
 | P. Lindan, P. Haynes, J. White, V. Milman,      |
 | N. Govind, M. Gibson, P. Tulip, V. Cocula,      |
 | B. Montanari, D. Quigley, M. Glover,            |
 | L. Bernasconi, A. Perlov, M. Plummer,           |
 | E. McNellis, J. Meyer, J. Gale, D. Jochym       |
 | J. Aarons, B. Walker, R. Gillen, D. Jones       |
 | T. Green, I. J. Bush, C. J. Armstrong,          |
 | E. J. Higgins, E. L. Brown, M. S. McFly,        |
 | J. Wilkins, B-C. Shih, P. J. P. Byrne,          |
 | R. J. Maurer, J. C. Womack, J. Dziedzic,        |
 | A. Bartok-Partay, L. LeBlanc, T. K. Stenczel,   |
 | J. Kermode, S. Sturniolo, B. Shi, B. Durham     |
 | M. Evans, M. J. Smith                           |
 |                                                 |
 | Copyright (c) 2000 - 2022                       |
 |                                                 |
 | Please cite                                     |
 |                                                 |
 |     "First principles methods using CASTEP"     |
 |                                                 |
 |         Zeitschrift fuer Kristallographie       |
 |           220(5-6) pp. 567-570 (2005)           |
 |                                                 |
 | S. J. Clark, M. D. Segall, C. J. Pickard,       |
 | P. J. Hasnip, M. J. Probert, K. Refson,         |
 | M. C. Payne                                     |
 |                                                 |
 |       in all publications arising from          |
 |              your use of CASTEP                 |
 |                                                 |
 +-------------------------------------------------+
 |                                                 |
 |              http://www.castep.org              |
 |                                                 |
 +-------------------------------------------------+
 
 
 This version was compiled for x86_64-windows-msvc2017 on Oct 26 2022
 Code version:    fdad7da
 Intel(R) Math Kernel Library Version 2019.0.4 
 Fundamental constants values: CODATA 2018
 
License checkout of MS_castep successful
 
 
 Atomic calculation performed for Si: 1s2 2s2 2p6 3s2 3p2
 
 Converged in 54 iterations to an ae energy of -7886.857 eV
 
 Identity difference: 1.35E-04
 
   ============================================================                
   | Pseudopotential Report - Date of generation 19-03-2024   |                
   ------------------------------------------------------------                
   | Element: Si Ionic charge:  4.00 Level of theory: PBE     |                
   | Atomic Solver: Koelling-Harmon                           |                
   |                                                          |                
   |               Reference Electronic Structure             |                
   |         Orbital         Occupation         Energy        |                
   |            3s              2.000           -0.397        |                
   |            3p              2.000           -0.150        |                
   |                                                          |                
   |                 Pseudopotential Definition               |                
   |        Beta     l      e      Rc     scheme   norm       |                
   |          1      0   -0.397   1.797     qc      0         |                
   |          2      0    0.250   1.797     qc      0         |                
   |          3      1   -0.150   1.797     qc      0         |                
   |          4      1    0.250   1.797     qc      0         |                
   |          5      2    0.000   1.797     qc      0         |                
   |          6      2    0.250   1.797     qc      0         |                
   |         loc     3    0.000   1.797     pn      0         |                
   |                                                          |                
   | Augmentation charge Rinner = 1.255                       |                
   | Partial core correction Rc = 1.255                       |                
   ------------------------------------------------------------                
   | "3|1.8|3.6|5|7|30UU:31UU:32UU[]"                         |                
   ------------------------------------------------------------                
   |      Author: Chris J. Pickard, Cambridge University      |                
   ============================================================                
 
 Doing a self consistent calculation for the test configuration
 
 Atomic calculation performed for Si: 1s2 2s2 2p6 3s2 3p2
 
 Converged in 54 iterations to an ae energy of -7886.857 eV
 
 ---------------------------------------
 AE eigenvalue nl 10 =      -65.63192903
 AE eigenvalue nl 20 =       -5.12654326
 AE eigenvalue nl 21 =       -3.51173659
 AE eigenvalue nl 30 =       -0.39736430
 AE eigenvalue nl 31 =       -0.14998156
 ---------------------------------------
 PS eigenvalue nl 30 =       -0.39734684
 PS eigenvalue nl 31 =       -0.14996575
 ---------------------------------------
 Maximum eigenvalue error:   1.75E-05
 
 Derived cutoff energies: C=   1 M=   4 F=   4 E=   6
 
 Checking for ghost states up to   1.41091 Ha
 
 No Ghost States Identified
 
 ***************************************
 
 Pseudo atomic calculation performed for Si 3s2 3p2
 
 Converged in 15 iterations to a total energy of -164.8513 eV
 Calculation parallelised over 16 processes.
 Data is distributed by G-vector(4-way) and k-point(4-way)

 ************************************ Title ************************************
 CASTEP calculation from BIOVIA Materials Studio 2023

 ***************************** General Parameters ******************************
  
 output verbosity                               : normal  (1)
 write checkpoint data to                       : Si__2_.check
 type of calculation                            : molecular dynamics
 stress calculation                             : on
 density difference calculation                 : off
 electron localisation func (ELF) calculation   : off
 Hirshfeld analysis                             : on
 polarisation (Berry phase) analysis            : off
 molecular orbital projected DOS                : off
 deltaSCF calculation                           : off
 unlimited duration calculation
 timing information                             : on
 memory usage estimate                          : on
 write extra output files                       : on
 write final potential to formatted file        : off
 write final density to formatted file          : off
 write BibTeX reference list                    : on
 write OTFG pseudopotential files               : on
 write electrostatic potential file             : on
 write bands file                               : on
 checkpoint writing                             : both castep_bin and check files
  
 output         length unit                     : A
 output           mass unit                     : amu
 output           time unit                     : ps
 output         charge unit                     : e
 output           spin unit                     : hbar/2
 output         energy unit                     : eV
 output          force unit                     : eV/A
 output       velocity unit                     : A/ps
 output       pressure unit                     : GPa
 output     inv_length unit                     : 1/A
 output      frequency unit                     : cm-1
 output force constant unit                     : eV/A**2
 output         volume unit                     : A**3
 output   IR intensity unit                     : (D/A)**2/amu
 output         dipole unit                     : D
 output         efield unit                     : eV/A/e
 output        entropy unit                     : J/mol/K
 output    efield chi2 unit                     : pm/V
  
 wavefunctions paging                           : none
 random number generator seed                   :  100858060
 data distribution                              : optimal for this architecture
 optimization strategy                          : balance speed and memory

 *********************** Exchange-Correlation Parameters ***********************
  
 using functional                               : Perdew Burke Ernzerhof
 relativistic treatment                         : Koelling-Harmon
 DFT+D: Semi-empirical dispersion correction    : off

 ************************* Pseudopotential Parameters **************************
  
 pseudopotential representation                 : reciprocal space
 <beta|phi> representation                      : reciprocal space
 spin-orbit coupling                            : off

 **************************** Basis Set Parameters *****************************
  
 plane wave basis set cut-off                   :   136.1000   eV
 size of standard grid                          :     1.5000
 size of   fine   gmax                          :     8.9652   1/A
 largest prime factor in FFT                    :          5
 finite basis set correction                    : automatic
 number of sample energies                      :          3
           sample  spacing                      :     5.0000   eV

 **************************** Electronic Parameters ****************************
  
 number of  electrons                           :  32.00    
 net charge of system                           :  0.000    
 treating system as non-spin-polarized
 number of bands                                :         16

 ********************* Electronic Minimization Parameters **********************
  
 Method: Treating system as non-metallic,
         and number of  SD  steps               :          1
         and number of  CG  steps               :          4
  
 total energy / atom convergence tol.           : 0.2000E-05   eV
 eigen-energy convergence tolerance             : 0.1000E-05   eV
 max force / atom convergence tol.              : ignored
 convergence tolerance window                   :          3   cycles
 max. number of SCF cycles                      :        100
 periodic dipole correction                     : NONE

 ************************** Density Mixing Parameters **************************
  
 density-mixing scheme                          : Pulay
 max. length of mixing history                  :         20
 charge density mixing amplitude                : 0.5000    
 cut-off energy for mixing                      :  136.1       eV
 charge density mixing g-vector                 :  1.500       1/A

 *********************** Population Analysis Parameters ************************
  
 Population analysis with cutoff                :  3.000       A
 Population analysis output                     : summary and pdos components

 ************************ Molecular Dynamics Parameters ************************
  
 ensemble                                       : NVT
 temperature                                    :  400.0       K
 using                                          : Langevin thermostat
 with characteristic ionic time                 : 0.1000       ps
 path integral MD                               : OFF
 time step                                      : 0.5000E-02   ps
 number of MD steps                             :         50
 ab initio properties sampled every             :          0   MD steps
 enhanced equilibration method                  : NONE
 using XL-BOMD                                  :  for wavefunctions and charge density
 with XL-BOMD history                           :          0
 backup results every                           :          5   steps
  
 MD SCF energy / atom convergence tol.          : 0.2000E-05   eV
 MD SCF eigenenergies tolerance                 : 0.1000E-05   eV
 MD SCF convergence tolerance window            :          3   cycles
 write MD trajectory file                       : on

 *******************************************************************************
  
 
                           -------------------------------
                                      Unit Cell
                           -------------------------------
        Real Lattice(A)                      Reciprocal Lattice(1/A)
     5.4307000     0.0000000     0.0000000        1.156975216   0.000000000   0.000000000
     0.0000000     5.4307000     0.0000000        0.000000000   1.156975216   0.000000000
     0.0000000     0.0000000     5.4307000        0.000000000   0.000000000   1.156975216
 
                       Lattice parameters(A)       Cell Angles
                    a =      5.430700          alpha =   90.000000
                    b =      5.430700          beta  =   90.000000
                    c =      5.430700          gamma =   90.000000
 
                       Current cell volume =           160.164933       A**3
                                   density =             1.402829   AMU/A**3
                                           =             2.329452     g/cm^3
 
                           -------------------------------
                                     Cell Contents
                           -------------------------------
                         Total number of ions in cell =    8
                      Total number of species in cell =    1
                        Max number of any one species =    8
 
            xxxxxxxxxxxxxxxxxxxxxxxxxxxxxxxxxxxxxxxxxxxxxxxxxxxxxxxxxxxx
            x  Element    Atom        Fractional coordinates of atoms  x
            x            Number           u          v          w      x
            x----------------------------------------------------------x
            x  Si           1         0.000000   0.000000   0.000000   x 
            x  Si           2         0.000000   0.500000   0.500000   x 
            x  Si           3         0.500000   0.000000   0.500000   x 
            x  Si           4         0.500000   0.500000   0.000000   x 
            x  Si           5         0.750000   0.250000   0.750000   x 
            x  Si           6         0.250000   0.250000   0.250000   x 
            x  Si           7         0.250000   0.750000   0.750000   x 
            x  Si           8         0.750000   0.750000   0.250000   x 
            xxxxxxxxxxxxxxxxxxxxxxxxxxxxxxxxxxxxxxxxxxxxxxxxxxxxxxxxxxxx
 
 
                         No user defined ionic velocities
 
                           -------------------------------
                                   Details of Species
                           -------------------------------
 
                               Mass of species in AMU
                                    Si   28.0849991
 
                          Electric Quadrupole Moment (Barn)
                                    Si    1.0000000 No Isotope Defined
 
                          Files used for pseudopotentials:
                                    Si 3|1.8|3.6|5|7|30UU:31UU:32UU[]
 
                           -------------------------------
                              k-Points For BZ Sampling
                           -------------------------------
                       MP grid size for SCF calculation is  2  2  2
                            with an offset of   0.000  0.000  0.000
                       Number of kpoints used =             4
 
                           -------------------------------
                               Symmetry and Constraints
                           -------------------------------
 
                      Cell is a supercell containing 4 primitive cells
                      Maximum deviation from symmetry =  0.00000         ANG
 
                      Number of symmetry operations   =           1
         There are no ionic constraints specified or generated for this cell
                      Point group of crystal =     1: C1, 1, 1
                      Space group of crystal =   227: Fd-3m, F 4d 2 3 -1d
 
             Set iprint > 1 for details on symmetry rotations/translations
 
                         Centre of mass is NOT constrained
 
                         Number of cell constraints= 5
                         Cell constraints are:  1 1 1 0 0 0
 
                         External pressure/stress (GPa)
                          0.00000   0.00000   0.00000
                                    0.00000   0.00000
                                              0.00000
 
+---------------- MEMORY AND SCRATCH DISK ESTIMATES PER PROCESS --------------+
|                                                     Memory          Disk    |
| Baseline code, static data and system overhead        0.0 MB         0.0 MB |
| BLAS internal memory storage                          0.0 MB         0.0 MB |
| Model and support data                               84.9 MB         0.0 MB |
| Electronic energy minimisation requirements           0.9 MB         0.0 MB |
| Force calculation requirements                        0.2 MB         0.0 MB |
| Stress calculation requirements                       0.2 MB         0.0 MB |
|                                               ----------------------------- |
| Approx. total storage required per process           85.8 MB         0.0 MB |
|                                                                             |
| Requirements will fluctuate during execution and may exceed these estimates |
+-----------------------------------------------------------------------------+
Calculating finite basis set correction with  3 cut-off energies.
Calculating total energy with cut-off of  126.100 eV.
------------------------------------------------------------------------ <-- SCF
SCF loop      Energy                           Energy gain       Timer   <-- SCF
                                               per atom          (sec)   <-- SCF
------------------------------------------------------------------------ <-- SCF
Initial  -9.78923732E+001                                          4.47  <-- SCF
      1  -1.24461860E+003                    1.43340778E+002       4.47  <-- SCF
      2  -1.37940840E+003                    1.68487262E+001       4.47  <-- SCF
      3  -1.38419165E+003                    5.97905065E-001       4.47  <-- SCF
      4  -1.38348648E+003                   -8.81456311E-002       4.48  <-- SCF
      5  -1.38320221E+003                   -3.55337799E-002       4.48  <-- SCF
      6  -1.38323318E+003                    3.87137085E-003       4.52  <-- SCF
      7  -1.38324288E+003                    1.21296864E-003       4.53  <-- SCF
      8  -1.38324286E+003                   -3.36787471E-006       4.55  <-- SCF
      9  -1.38324286E+003                   -3.04866545E-007       4.55  <-- SCF
     10  -1.38324285E+003                   -2.32331869E-007       4.56  <-- SCF
------------------------------------------------------------------------ <-- SCF
 
Final energy =  -1383.242853687     eV
(energy not corrected for finite basis set)
 
Calculating total energy with cut-off of  131.100 eV.
------------------------------------------------------------------------ <-- SCF
SCF loop      Energy                           Energy gain       Timer   <-- SCF
                                               per atom          (sec)   <-- SCF
------------------------------------------------------------------------ <-- SCF
Initial  -1.38322329E+003                                          4.56  <-- SCF
      1  -1.38336807E+003                    1.80970684E-002       4.58  <-- SCF
      2  -1.38336820E+003                    1.68138397E-005       4.59  <-- SCF
      3  -1.38336834E+003                    1.74629972E-005       4.62  <-- SCF
      4  -1.38336834E+003                   -9.27180148E-008       4.64  <-- SCF
      5  -1.38336834E+003                    3.25436508E-008       4.64  <-- SCF
------------------------------------------------------------------------ <-- SCF
 
Final energy =  -1383.368343467     eV
(energy not corrected for finite basis set)
 
Calculating total energy with cut-off of  136.100 eV.
------------------------------------------------------------------------ <-- SCF
SCF loop      Energy                           Energy gain       Timer   <-- SCF
                                               per atom          (sec)   <-- SCF
------------------------------------------------------------------------ <-- SCF
Initial  -1.38336834E+003                                          4.66  <-- SCF
      1  -1.38353368E+003                    2.06669367E-002       4.66  <-- SCF
      2  -1.38353390E+003                    2.73683641E-005       4.67  <-- SCF
      3  -1.38353402E+003                    1.46727821E-005       4.69  <-- SCF
      4  -1.38353404E+003                    3.28816299E-006       4.70  <-- SCF
      5  -1.38353404E+003                    3.14022662E-008       4.72  <-- SCF
      6  -1.38353404E+003                    1.63157397E-008       4.72  <-- SCF
------------------------------------------------------------------------ <-- SCF
 
Final energy =  -1383.534042019     eV
(energy not corrected for finite basis set)
 
 For future reference: finite basis dEtot/dlog(Ecut) =      -4.742801eV
 Total energy corrected for finite basis set =   -1383.525601 eV
  
 WARNING - MD ensemble=NVT so fixing cell parameters
  
 Starting MD
 
 ************************************** Forces **************************************
 *                                                                                  *
 *                           Cartesian components (eV/A)                            *
 * -------------------------------------------------------------------------------- *
 *                         x                    y                    z              *
 *                                                                                  *
 * Si              1      0.00000              0.00000             -0.00000         *
 * Si              2      0.00000             -0.00000              0.00000         *
 * Si              3     -0.00000             -0.00000              0.00000         *
 * Si              4     -0.00000              0.00000             -0.00000         *
 * Si              5     -0.00000              0.00000             -0.00000         *
 * Si              6      0.00000              0.00000              0.00000         *
 * Si              7      0.00000             -0.00000             -0.00000         *
 * Si              8     -0.00000             -0.00000              0.00000         *
 *                                                                                  *
 ************************************************************************************
  
            xxxxxxxxxxxxxxxxxxxxxxxxxxxxxxxxxxxxxxxxxxxxxxxxxxxxxxxxxxxxxx
            x                                               MD Data:     x
            x                                                            x
            x              time :      0.000000                   ps     x
            x                                                            x
            x   Potential Energy:  -1383.525601                   eV     x
            x   Kinetic   Energy:      0.413632                   eV     x
            x   Total     Energy:  -1383.111969                   eV     x
            x   Hamilt    Energy:  -1383.111969                   eV     x
            x                                                            x
            x        Temperature:    400.000000                    K     x
            xxxxxxxxxxxxxxxxxxxxxxxxxxxxxxxxxxxxxxxxxxxxxxxxxxxxxxxxxxxxxx
 

================================================================================
 Starting MD iteration          1 ...
================================================================================
 
+---------------- MEMORY AND SCRATCH DISK ESTIMATES PER PROCESS --------------+
|                                                     Memory          Disk    |
| Model and support data                               93.9 MB         0.0 MB |
| Molecular Dynamics requirements                       0.9 MB         0.0 MB |
|                                               ----------------------------- |
| Approx. total storage required per process           94.7 MB         0.0 MB |
|                                                                             |
| Requirements will fluctuate during execution and may exceed these estimates |
+-----------------------------------------------------------------------------+
 
 
                           -------------------------------
                                     Cell Contents
                           -------------------------------
 
            xxxxxxxxxxxxxxxxxxxxxxxxxxxxxxxxxxxxxxxxxxxxxxxxxxxxxxxxxxxxxx
            x  Element    Atom        Fractional coordinates of atoms    x
            x            Number           u          v          w        x
            x------------------------------------------------------------x
            x   Si         1          0.000689  -0.001283   0.004109     x
            x   Si         2          0.001971   0.497465   0.501346     x
            x   Si         3          0.497620   0.005986   0.497767     x
            x   Si         4          0.503535   0.499417  -0.000772     x
            x   Si         5          0.746521   0.243056   0.749266     x
            x   Si         6          0.249519   0.257658   0.252702     x
            x   Si         7          0.251578   0.751171   0.751233     x
            x   Si         8          0.751895   0.749755   0.248520     x
            xxxxxxxxxxxxxxxxxxxxxxxxxxxxxxxxxxxxxxxxxxxxxxxxxxxxxxxxxxxxxx
 
------------------------------------------------------------------------ <-- SCF
SCF loop      Energy                           Energy gain       Timer   <-- SCF
                                               per atom          (sec)   <-- SCF
------------------------------------------------------------------------ <-- SCF
Initial  -1.38336705E+003                                          4.75  <-- SCF
      1  -1.38370782E+003                    4.25969595E-002       4.75  <-- SCF
      2  -1.38371338E+003                    6.94565838E-004       4.77  <-- SCF
      3  -1.38357251E+003                   -1.76083270E-002       4.78  <-- SCF
      4  -1.38354454E+003                   -3.49623907E-003       4.78  <-- SCF
      5  -1.38354545E+003                    1.12807782E-004       4.81  <-- SCF
      6  -1.38354545E+003                    8.55362722E-007       4.81  <-- SCF
      7  -1.38354546E+003                    1.30767366E-006       4.83  <-- SCF
      8  -1.38354546E+003                    1.52502830E-007       4.84  <-- SCF
------------------------------------------------------------------------ <-- SCF
 
Final energy =  -1383.545464453     eV
(energy not corrected for finite basis set)
 
 
 ************************************** Forces **************************************
 *                                                                                  *
 *                           Cartesian components (eV/A)                            *
 * -------------------------------------------------------------------------------- *
 *                         x                    y                    z              *
 *                                                                                  *
 * Si              1      0.00032              0.06467              0.28030         *
 * Si              2     -0.19508             -0.00139              0.34218         *
 * Si              3     -0.39577             -0.43865             -0.51158         *
 * Si              4      0.64449              0.18911             -0.11738         *
 * Si              5     -0.38035              0.44504              0.02809         *
 * Si              6      0.06353             -0.47927              0.01341         *
 * Si              7      0.22743              0.12289             -0.03423         *
 * Si              8      0.03542              0.09759             -0.00080         *
 *                                                                                  *
 ************************************************************************************
  
            xxxxxxxxxxxxxxxxxxxxxxxxxxxxxxxxxxxxxxxxxxxxxxxxxxxxxxxxxxxxxx
            x                                               MD Data:     x
            x                                                            x
            x              time :      0.005000                   ps     x
            x                                                            x
            x   Potential Energy:  -1383.537024                   eV     x
            x   Kinetic   Energy:      0.392145                   eV     x
            x   Total     Energy:  -1383.144879                   eV     x
            x   Hamilt    Energy:  -1383.144879                   eV     x
            x                                                            x
            x        Temperature:    379.220784                    K     x
            xxxxxxxxxxxxxxxxxxxxxxxxxxxxxxxxxxxxxxxxxxxxxxxxxxxxxxxxxxxxxx
 

--------------------------------------------------------------------------------
 ... finished MD iteration          1

================================================================================
 Starting MD iteration          2 ...
================================================================================
 
                           -------------------------------
                                     Cell Contents
                           -------------------------------
 
            xxxxxxxxxxxxxxxxxxxxxxxxxxxxxxxxxxxxxxxxxxxxxxxxxxxxxxxxxxxxxx
            x  Element    Atom        Fractional coordinates of atoms    x
            x            Number           u          v          w        x
            x------------------------------------------------------------x
            x   Si         1          0.002425  -0.002953   0.009117     x
            x   Si         2          0.004259   0.495574   0.504516     x
            x   Si         3          0.495699   0.011461   0.495504     x
            x   Si         4          0.507267   0.499285  -0.002604     x
            x   Si         5          0.742645   0.236891   0.747542     x
            x   Si         6          0.247441   0.264232   0.255873     x
            x   Si         7          0.254041   0.753071   0.752465     x
            x   Si         8          0.753443   0.749601   0.247146     x
            xxxxxxxxxxxxxxxxxxxxxxxxxxxxxxxxxxxxxxxxxxxxxxxxxxxxxxxxxxxxxx
 
------------------------------------------------------------------------ <-- SCF
SCF loop      Energy                           Energy gain       Timer   <-- SCF
                                               per atom          (sec)   <-- SCF
------------------------------------------------------------------------ <-- SCF
Initial  -1.38339302E+003                                          4.89  <-- SCF
      1  -1.38366557E+003                    3.40690438E-002       4.89  <-- SCF
      2  -1.38367035E+003                    5.97402710E-004       4.91  <-- SCF
      3  -1.38356022E+003                   -1.37671201E-002       4.91  <-- SCF
      4  -1.38353875E+003                   -2.68322857E-003       4.92  <-- SCF
      5  -1.38353936E+003                    7.65733060E-005       4.94  <-- SCF
      6  -1.38353942E+003                    6.83808411E-006       4.95  <-- SCF
      7  -1.38353944E+003                    2.90621447E-006       4.95  <-- SCF
      8  -1.38353944E+003                    2.50273138E-007       4.95  <-- SCF
      9  -1.38353944E+003                    2.31059708E-008       4.97  <-- SCF
------------------------------------------------------------------------ <-- SCF
 
Final energy =  -1383.539442133     eV
(energy not corrected for finite basis set)
 
 
 ************************************** Forces **************************************
 *                                                                                  *
 *                           Cartesian components (eV/A)                            *
 * -------------------------------------------------------------------------------- *
 *                         x                    y                    z              *
 *                                                                                  *
 * Si              1      0.57651             -0.28583             -0.48093         *
 * Si              2     -0.29798              0.16647              1.08999         *
 * Si              3     -1.02121             -0.86545             -0.79763         *
 * Si              4     -0.47621              0.06633             -0.34115         *
 * Si              5      0.62422              0.16114              0.01657         *
 * Si              6     -0.48106              0.01224             -0.12696         *
 * Si              7      0.52518              0.77703              0.33443         *
 * Si              8      0.55055             -0.03193              0.30568         *
 *                                                                                  *
 ************************************************************************************
  
            xxxxxxxxxxxxxxxxxxxxxxxxxxxxxxxxxxxxxxxxxxxxxxxxxxxxxxxxxxxxxx
            x                                               MD Data:     x
            x                                                            x
            x              time :      0.010000                   ps     x
            x                                                            x
            x   Potential Energy:  -1383.531002                   eV     x
            x   Kinetic   Energy:      0.425698                   eV     x
            x   Total     Energy:  -1383.105304                   eV     x
            x   Hamilt    Energy:  -1383.105304                   eV     x
            x                                                            x
            x        Temperature:    411.668370                    K     x
            xxxxxxxxxxxxxxxxxxxxxxxxxxxxxxxxxxxxxxxxxxxxxxxxxxxxxxxxxxxxxx
 

--------------------------------------------------------------------------------
 ... finished MD iteration          2

================================================================================
 Starting MD iteration          3 ...
================================================================================
 
                           -------------------------------
                                     Cell Contents
                           -------------------------------
 
            xxxxxxxxxxxxxxxxxxxxxxxxxxxxxxxxxxxxxxxxxxxxxxxxxxxxxxxxxxxxxx
            x  Element    Atom        Fractional coordinates of atoms    x
            x            Number           u          v          w        x
            x------------------------------------------------------------x
            x   Si         1          0.005417  -0.003746   0.013150     x
            x   Si         2          0.007344   0.494171   0.510188     x
            x   Si         3          0.493600   0.016086   0.491681     x
            x   Si         4          0.509177   0.501537  -0.005585     x
            x   Si         5          0.738559   0.229850   0.746121     x
            x   Si         6          0.245933   0.270901   0.258749     x
            x   Si         7          0.256353   0.756064   0.754044     x
            x   Si         8          0.756121   0.749306   0.246556     x
            xxxxxxxxxxxxxxxxxxxxxxxxxxxxxxxxxxxxxxxxxxxxxxxxxxxxxxxxxxxxxx
 
------------------------------------------------------------------------ <-- SCF
SCF loop      Energy                           Energy gain       Timer   <-- SCF
                                               per atom          (sec)   <-- SCF
------------------------------------------------------------------------ <-- SCF
Initial  -1.38483399E+003                                          5.00  <-- SCF
      1  -1.38379768E+003                   -1.29538507E-001       5.00  <-- SCF
      2  -1.38380419E+003                    8.13528666E-004       5.02  <-- SCF
      3  -1.38357007E+003                   -2.92650530E-002       5.03  <-- SCF
      4  -1.38352590E+003                   -5.52142998E-003       5.03  <-- SCF
      5  -1.38352666E+003                    9.52406337E-005       5.05  <-- SCF
      6  -1.38352668E+003                    3.21326951E-006       5.06  <-- SCF
      7  -1.38352676E+003                    8.84164453E-006       5.06  <-- SCF
      8  -1.38352676E+003                    4.59973731E-008       5.08  <-- SCF
      9  -1.38352676E+003                    5.79840151E-008       5.08  <-- SCF
------------------------------------------------------------------------ <-- SCF
 
Final energy =  -1383.526755889     eV
(energy not corrected for finite basis set)
 
 
 ************************************** Forces **************************************
 *                                                                                  *
 *                           Cartesian components (eV/A)                            *
 * -------------------------------------------------------------------------------- *
 *                         x                    y                    z              *
 *                                                                                  *
 * Si              1      0.87098             -0.08596             -0.10813         *
 * Si              2     -1.02318              0.80497              1.25327         *
 * Si              3     -0.79563             -1.20609             -0.83607         *
 * Si              4     -0.09955              0.30336              0.04581         *
 * Si              5      1.44572              0.53854             -0.03475         *
 * Si              6     -0.32506             -0.60510             -1.13686         *
 * Si              7      0.05312              0.32234              0.45411         *
 * Si              8     -0.12640             -0.07206              0.36262         *
 *                                                                                  *
 ************************************************************************************
  
            xxxxxxxxxxxxxxxxxxxxxxxxxxxxxxxxxxxxxxxxxxxxxxxxxxxxxxxxxxxxxx
            x                                               MD Data:     x
            x                                                            x
            x              time :      0.015000                   ps     x
            x                                                            x
            x   Potential Energy:  -1383.518315                   eV     x
            x   Kinetic   Energy:      0.466461                   eV     x
            x   Total     Energy:  -1383.051855                   eV     x
            x   Hamilt    Energy:  -1383.051855                   eV     x
            x                                                            x
            x        Temperature:    451.087560                    K     x
            xxxxxxxxxxxxxxxxxxxxxxxxxxxxxxxxxxxxxxxxxxxxxxxxxxxxxxxxxxxxxx
 

--------------------------------------------------------------------------------
 ... finished MD iteration          3

================================================================================
 Starting MD iteration          4 ...
================================================================================
 
                           -------------------------------
                                     Cell Contents
                           -------------------------------
 
            xxxxxxxxxxxxxxxxxxxxxxxxxxxxxxxxxxxxxxxxxxxxxxxxxxxxxxxxxxxxxx
            x  Element    Atom        Fractional coordinates of atoms    x
            x            Number           u          v          w        x
            x------------------------------------------------------------x
            x   Si         1          0.008934  -0.004015   0.018184     x
            x   Si         2          0.010084   0.493266   0.517947     x
            x   Si         3          0.488700   0.020486   0.487163     x
            x   Si         4          0.509777   0.504356  -0.007805     x
            x   Si         5          0.736188   0.224899   0.745306     x
            x   Si         6          0.243971   0.275414   0.260735     x
            x   Si         7          0.259492   0.760479   0.756431     x
            x   Si         8          0.758969   0.749159   0.247307     x
            xxxxxxxxxxxxxxxxxxxxxxxxxxxxxxxxxxxxxxxxxxxxxxxxxxxxxxxxxxxxxx
 
------------------------------------------------------------------------ <-- SCF
SCF loop      Energy                           Energy gain       Timer   <-- SCF
                                               per atom          (sec)   <-- SCF
------------------------------------------------------------------------ <-- SCF
Initial  -1.38443843E+003                                          5.11  <-- SCF
      1  -1.38372499E+003                   -8.91790048E-002       5.11  <-- SCF
      2  -1.38373165E+003                    8.32349899E-004       5.11  <-- SCF
      3  -1.38351776E+003                   -2.67365208E-002       5.11  <-- SCF
      4  -1.38347827E+003                   -4.93657598E-003       5.12  <-- SCF
      5  -1.38347914E+003                    1.08676007E-004       5.14  <-- SCF
      6  -1.38347924E+003                    1.34108774E-005       5.16  <-- SCF
      7  -1.38347931E+003                    8.40344704E-006       5.16  <-- SCF
      8  -1.38347933E+003                    2.15782187E-006       5.19  <-- SCF
      9  -1.38347933E+003                    3.96187085E-007       5.19  <-- SCF
     10  -1.38347933E+003                    5.10724820E-008       5.19  <-- SCF
------------------------------------------------------------------------ <-- SCF
 
Final energy =  -1383.479332479     eV
(energy not corrected for finite basis set)
 
 
 ************************************** Forces **************************************
 *                                                                                  *
 *                           Cartesian components (eV/A)                            *
 * -------------------------------------------------------------------------------- *
 *                         x                    y                    z              *
 *                                                                                  *
 * Si              1      0.51699             -0.03650             -0.61829         *
 * Si              2     -1.38297              0.83532              0.88327         *
 * Si              3     -0.12212             -2.06980             -0.28109         *
 * Si              4      0.17141              0.42889              0.53498         *
 * Si              5      2.23079              1.19359              0.16422         *
 * Si              6     -0.22230             -0.43846             -1.35878         *
 * Si              7     -0.47615              0.34805             -0.11798         *
 * Si              8     -0.71565             -0.26109              0.79365         *
 *                                                                                  *
 ************************************************************************************
  
            xxxxxxxxxxxxxxxxxxxxxxxxxxxxxxxxxxxxxxxxxxxxxxxxxxxxxxxxxxxxxx
            x                                               MD Data:     x
            x                                                            x
            x              time :      0.020000                   ps     x
            x                                                            x
            x   Potential Energy:  -1383.470892                   eV     x
            x   Kinetic   Energy:      0.432977                   eV     x
            x   Total     Energy:  -1383.037915                   eV     x
            x   Hamilt    Energy:  -1383.037915                   eV     x
            x                                                            x
            x        Temperature:    418.707328                    K     x
            xxxxxxxxxxxxxxxxxxxxxxxxxxxxxxxxxxxxxxxxxxxxxxxxxxxxxxxxxxxxxx
 

--------------------------------------------------------------------------------
 ... finished MD iteration          4

================================================================================
 Starting MD iteration          5 ...
================================================================================
 
                           -------------------------------
                                     Cell Contents
                           -------------------------------
 
            xxxxxxxxxxxxxxxxxxxxxxxxxxxxxxxxxxxxxxxxxxxxxxxxxxxxxxxxxxxxxx
            x  Element    Atom        Fractional coordinates of atoms    x
            x            Number           u          v          w        x
            x------------------------------------------------------------x
            x   Si         1          0.010977  -0.004376   0.023486     x
            x   Si         2          0.011241   0.494179   0.527261     x
            x   Si         3          0.483286   0.022652   0.484090     x
            x   Si         4          0.511105   0.507616  -0.009987     x
            x   Si         5          0.738321   0.221979   0.744523     x
            x   Si         6          0.243217   0.278293   0.259187     x
            x   Si         7          0.262008   0.764864   0.759108     x
            x   Si         8          0.761313   0.748981   0.249353     x
            xxxxxxxxxxxxxxxxxxxxxxxxxxxxxxxxxxxxxxxxxxxxxxxxxxxxxxxxxxxxxx
 
------------------------------------------------------------------------ <-- SCF
SCF loop      Energy                           Energy gain       Timer   <-- SCF
                                               per atom          (sec)   <-- SCF
------------------------------------------------------------------------ <-- SCF
Initial  -1.37994306E+003                                          5.22  <-- SCF
      1  -1.38347696E+003                    4.41738169E-001       5.23  <-- SCF
      2  -1.38350369E+003                    3.34124355E-003       5.25  <-- SCF
      3  -1.38340270E+003                   -1.26242666E-002       5.27  <-- SCF
      4  -1.38338184E+003                   -2.60800990E-003       5.28  <-- SCF
      5  -1.38338220E+003                    4.60548529E-005       5.28  <-- SCF
      6  -1.38338223E+003                    3.62459368E-006       5.28  <-- SCF
      7  -1.38338225E+003                    2.78461461E-006       5.30  <-- SCF
      8  -1.38338228E+003                    2.76794753E-006       5.30  <-- SCF
      9  -1.38338228E+003                    3.23535095E-007       5.30  <-- SCF
     10  -1.38338228E+003                    2.52864782E-007       5.30  <-- SCF
------------------------------------------------------------------------ <-- SCF
 
Final energy =  -1383.382281542     eV
(energy not corrected for finite basis set)
 
 
 ************************************** Forces **************************************
 *                                                                                  *
 *                           Cartesian components (eV/A)                            *
 * -------------------------------------------------------------------------------- *
 *                         x                    y                    z              *
 *                                                                                  *
 * Si              1     -0.36272              0.12414             -1.70190         *
 * Si              2     -1.81341              0.48017             -0.11054         *
 * Si              3      1.87516             -2.22455              0.65063         *
 * Si              4      0.24278             -0.11997              0.31846         *
 * Si              5      1.61615              1.38436              0.43309         *
 * Si              6     -0.25582              0.40342             -1.03007         *
 * Si              7     -0.44675              0.35199             -0.07641         *
 * Si              8     -0.85539             -0.39956              1.51674         *
 *                                                                                  *
 ************************************************************************************
  
            xxxxxxxxxxxxxxxxxxxxxxxxxxxxxxxxxxxxxxxxxxxxxxxxxxxxxxxxxxxxxx
            x                                               MD Data:     x
            x                                                            x
            x              time :      0.025000                   ps     x
            x                                                            x
            x   Potential Energy:  -1383.373841                   eV     x
            x   Kinetic   Energy:      0.361137                   eV     x
            x   Total     Energy:  -1383.012704                   eV     x
            x   Hamilt    Energy:  -1383.012704                   eV     x
            x                                                            x
            x        Temperature:    349.235074                    K     x
            xxxxxxxxxxxxxxxxxxxxxxxxxxxxxxxxxxxxxxxxxxxxxxxxxxxxxxxxxxxxxx
 

Writing analysis data to Si__2_.castep_bin

Writing model to Si__2_.check

--------------------------------------------------------------------------------
 ... finished MD iteration          5

================================================================================
 Starting MD iteration          6 ...
================================================================================
 
                           -------------------------------
                                     Cell Contents
                           -------------------------------
 
            xxxxxxxxxxxxxxxxxxxxxxxxxxxxxxxxxxxxxxxxxxxxxxxxxxxxxxxxxxxxxx
            x  Element    Atom        Fractional coordinates of atoms    x
            x            Number           u          v          w        x
            x------------------------------------------------------------x
            x   Si         1          0.012850  -0.003969   0.025969     x
            x   Si         2          0.009572   0.494682   0.536042     x
            x   Si         3          0.482502   0.021426   0.481076     x
            x   Si         4          0.512796   0.510462  -0.012704     x
            x   Si         5          0.743627   0.221611   0.745151     x
            x   Si         6          0.241566   0.281883   0.256679     x
            x   Si         7          0.263955   0.768529   0.761419     x
            x   Si         8          0.762943   0.749385   0.253077     x
            xxxxxxxxxxxxxxxxxxxxxxxxxxxxxxxxxxxxxxxxxxxxxxxxxxxxxxxxxxxxxx
 
------------------------------------------------------------------------ <-- SCF
SCF loop      Energy                           Energy gain       Timer   <-- SCF
                                               per atom          (sec)   <-- SCF
------------------------------------------------------------------------ <-- SCF
Initial  -1.37662913E+003                                          5.31  <-- SCF
      1  -1.38359405E+003                    8.70614845E-001       5.33  <-- SCF
      2  -1.38361618E+003                    2.76633314E-003       5.33  <-- SCF
      3  -1.38346664E+003                   -1.86923519E-002       5.34  <-- SCF
      4  -1.38343751E+003                   -3.64111074E-003       5.34  <-- SCF
      5  -1.38343842E+003                    1.13411770E-004       5.36  <-- SCF
      6  -1.38343838E+003                   -4.20933152E-006       5.38  <-- SCF
      7  -1.38343838E+003                   -2.93509277E-007       5.39  <-- SCF
      8  -1.38343838E+003                    7.08315656E-008       5.41  <-- SCF
------------------------------------------------------------------------ <-- SCF
 
Final energy =  -1383.438382750     eV
(energy not corrected for finite basis set)
 
 
 ************************************** Forces **************************************
 *                                                                                  *
 *                           Cartesian components (eV/A)                            *
 * -------------------------------------------------------------------------------- *
 *                         x                    y                    z              *
 *                                                                                  *
 * Si              1     -0.92013             -0.16736             -1.80285         *
 * Si              2     -1.31962              0.64222              0.38280         *
 * Si              3      2.68938             -2.16191              0.65492         *
 * Si              4      0.36643              0.03772              0.21668         *
 * Si              5      0.61420              1.10727              0.10530         *
 * Si              6      0.01012              1.06957             -0.93843         *
 * Si              7     -0.52973              0.02365             -0.34138         *
 * Si              8     -0.91065             -0.55115              1.72295         *
 *                                                                                  *
 ************************************************************************************
  
            xxxxxxxxxxxxxxxxxxxxxxxxxxxxxxxxxxxxxxxxxxxxxxxxxxxxxxxxxxxxxx
            x                                               MD Data:     x
            x                                                            x
            x              time :      0.030000                   ps     x
            x                                                            x
            x   Potential Energy:  -1383.429942                   eV     x
            x   Kinetic   Energy:      0.406692                   eV     x
            x   Total     Energy:  -1383.023251                   eV     x
            x   Hamilt    Energy:  -1383.023251                   eV     x
            x                                                            x
            x        Temperature:    393.288421                    K     x
            xxxxxxxxxxxxxxxxxxxxxxxxxxxxxxxxxxxxxxxxxxxxxxxxxxxxxxxxxxxxxx
 

--------------------------------------------------------------------------------
 ... finished MD iteration          6

================================================================================
 Starting MD iteration          7 ...
================================================================================
 
                           -------------------------------
                                     Cell Contents
                           -------------------------------
 
            xxxxxxxxxxxxxxxxxxxxxxxxxxxxxxxxxxxxxxxxxxxxxxxxxxxxxxxxxxxxxx
            x  Element    Atom        Fractional coordinates of atoms    x
            x            Number           u          v          w        x
            x------------------------------------------------------------x
            x   Si         1          0.013619  -0.003529   0.027470     x
            x   Si         2          0.004541   0.498103   0.544699     x
            x   Si         3          0.485276   0.016901   0.479286     x
            x   Si         4          0.513953   0.513361  -0.014992     x
            x   Si         5          0.749948   0.222694   0.745780     x
            x   Si         6          0.240609   0.287559   0.253406     x
            x   Si         7          0.264629   0.772320   0.761595     x
            x   Si         8          0.762571   0.749476   0.259322     x
            xxxxxxxxxxxxxxxxxxxxxxxxxxxxxxxxxxxxxxxxxxxxxxxxxxxxxxxxxxxxxx
 
------------------------------------------------------------------------ <-- SCF
SCF loop      Energy                           Energy gain       Timer   <-- SCF
                                               per atom          (sec)   <-- SCF
------------------------------------------------------------------------ <-- SCF
Initial  -1.38083606E+003                                          5.42  <-- SCF
      1  -1.38387886E+003                    3.80350239E-001       5.44  <-- SCF
      2  -1.38392472E+003                    5.73149275E-003       5.44  <-- SCF
      3  -1.38364834E+003                   -3.45466496E-002       5.45  <-- SCF
      4  -1.38359707E+003                   -6.40885175E-003       5.45  <-- SCF
      5  -1.38359836E+003                    1.61156639E-004       5.47  <-- SCF
      6  -1.38359856E+003                    2.43766613E-005       5.48  <-- SCF
      7  -1.38359868E+003                    1.61596215E-005       5.48  <-- SCF
      8  -1.38359869E+003                    1.54495939E-007       5.50  <-- SCF
      9  -1.38359869E+003                    6.05445901E-007       5.50  <-- SCF
------------------------------------------------------------------------ <-- SCF
 
Final energy =  -1383.598690865     eV
(energy not corrected for finite basis set)
 
 
 ************************************** Forces **************************************
 *                                                                                  *
 *                           Cartesian components (eV/A)                            *
 * -------------------------------------------------------------------------------- *
 *                         x                    y                    z              *
 *                                                                                  *
 * Si              1     -1.24442             -0.11497             -0.38779         *
 * Si              2      0.07945              0.69481             -0.68906         *
 * Si              3      1.67229             -1.11739             -0.12076         *
 * Si              4      0.05945             -0.24312              0.47185         *
 * Si              5      0.05742              0.99047              0.32957         *
 * Si              6      0.68626              0.87448              0.11359         *
 * Si              7     -0.71170             -0.27922             -0.24259         *
 * Si              8     -0.59874             -0.80505              0.52519         *
 *                                                                                  *
 ************************************************************************************
  
            xxxxxxxxxxxxxxxxxxxxxxxxxxxxxxxxxxxxxxxxxxxxxxxxxxxxxxxxxxxxxx
            x                                               MD Data:     x
            x                                                            x
            x              time :      0.035000                   ps     x
            x                                                            x
            x   Potential Energy:  -1383.590250                   eV     x
            x   Kinetic   Energy:      0.436345                   eV     x
            x   Total     Energy:  -1383.153906                   eV     x
            x   Hamilt    Energy:  -1383.153906                   eV     x
            x                                                            x
            x        Temperature:    421.964226                    K     x
            xxxxxxxxxxxxxxxxxxxxxxxxxxxxxxxxxxxxxxxxxxxxxxxxxxxxxxxxxxxxxx
 

--------------------------------------------------------------------------------
 ... finished MD iteration          7

================================================================================
 Starting MD iteration          8 ...
================================================================================
 
                           -------------------------------
                                     Cell Contents
                           -------------------------------
 
            xxxxxxxxxxxxxxxxxxxxxxxxxxxxxxxxxxxxxxxxxxxxxxxxxxxxxxxxxxxxxx
            x  Element    Atom        Fractional coordinates of atoms    x
            x            Number           u          v          w        x
            x------------------------------------------------------------x
            x   Si         1          0.011825  -0.003827   0.028453     x
            x   Si         2          0.002420   0.501407   0.549326     x
            x   Si         3          0.489152   0.012767   0.476312     x
            x   Si         4          0.515908   0.515098  -0.016054     x
            x   Si         5          0.756123   0.225115   0.746441     x
            x   Si         6          0.241476   0.292399   0.250813     x
            x   Si         7          0.264653   0.775217   0.761853     x
            x   Si         8          0.760100   0.748908   0.266619     x
            xxxxxxxxxxxxxxxxxxxxxxxxxxxxxxxxxxxxxxxxxxxxxxxxxxxxxxxxxxxxxx
 
------------------------------------------------------------------------ <-- SCF
SCF loop      Energy                           Energy gain       Timer   <-- SCF
                                               per atom          (sec)   <-- SCF
------------------------------------------------------------------------ <-- SCF
Initial  -1.38264654E+003                                          5.55  <-- SCF
      1  -1.38376751E+003                    1.40121656E-001       5.55  <-- SCF
      2  -1.38381447E+003                    5.87021987E-003       5.56  <-- SCF
      3  -1.38367789E+003                   -1.70725413E-002       5.56  <-- SCF
      4  -1.38364960E+003                   -3.53714440E-003       5.56  <-- SCF
      5  -1.38365054E+003                    1.17302407E-004       5.58  <-- SCF
      6  -1.38365067E+003                    1.70315774E-005       5.58  <-- SCF
      7  -1.38365081E+003                    1.77433614E-005       5.59  <-- SCF
      8  -1.38365082E+003                    5.77260495E-007       5.59  <-- SCF
      9  -1.38365088E+003                    7.73975125E-006       5.61  <-- SCF
     10  -1.38365082E+003                   -6.88184275E-006       5.62  <-- SCF
     11  -1.38365081E+003                   -2.11202875E-006       5.66  <-- SCF
     12  -1.38365081E+003                   -3.43320595E-007       5.67  <-- SCF
     13  -1.38365080E+003                   -7.79687462E-007       5.67  <-- SCF
------------------------------------------------------------------------ <-- SCF
 
Final energy =  -1383.650798862     eV
(energy not corrected for finite basis set)
 
 
 ************************************** Forces **************************************
 *                                                                                  *
 *                           Cartesian components (eV/A)                            *
 * -------------------------------------------------------------------------------- *
 *                         x                    y                    z              *
 *                                                                                  *
 * Si              1     -0.70436              0.20056             -0.18979         *
 * Si              2      0.71769              1.16616             -0.75453         *
 * Si              3      0.21458              0.24740              0.14692         *
 * Si              4     -0.16613             -0.60123              0.86336         *
 * Si              5     -0.26317              0.23362              0.33789         *
 * Si              6      0.75804              0.44490              0.12144         *
 * Si              7     -0.62159             -0.65165             -0.03275         *
 * Si              8      0.06494             -1.03975             -0.49254         *
 *                                                                                  *
 ************************************************************************************
  
            xxxxxxxxxxxxxxxxxxxxxxxxxxxxxxxxxxxxxxxxxxxxxxxxxxxxxxxxxxxxxx
            x                                               MD Data:     x
            x                                                            x
            x              time :      0.040000                   ps     x
            x                                                            x
            x   Potential Energy:  -1383.642358                   eV     x
            x   Kinetic   Energy:      0.397920                   eV     x
            x   Total     Energy:  -1383.244438                   eV     x
            x   Hamilt    Energy:  -1383.244438                   eV     x
            x                                                            x
            x        Temperature:    384.805706                    K     x
            xxxxxxxxxxxxxxxxxxxxxxxxxxxxxxxxxxxxxxxxxxxxxxxxxxxxxxxxxxxxxx
 

--------------------------------------------------------------------------------
 ... finished MD iteration          8

================================================================================
 Starting MD iteration          9 ...
================================================================================
 
                           -------------------------------
                                     Cell Contents
                           -------------------------------
 
            xxxxxxxxxxxxxxxxxxxxxxxxxxxxxxxxxxxxxxxxxxxxxxxxxxxxxxxxxxxxxx
            x  Element    Atom        Fractional coordinates of atoms    x
            x            Number           u          v          w        x
            x------------------------------------------------------------x
            x   Si         1          0.009164  -0.001993   0.028125     x
            x   Si         2          0.000590   0.506217   0.552934     x
            x   Si         3          0.492035   0.006649   0.474648     x
            x   Si         4          0.516788   0.515734  -0.014970     x
            x   Si         5          0.761855   0.228350   0.747554     x
            x   Si         6          0.244724   0.298619   0.248740     x
            x   Si         7          0.263469   0.777238   0.761780     x
            x   Si         8          0.758648   0.748303   0.273067     x
            xxxxxxxxxxxxxxxxxxxxxxxxxxxxxxxxxxxxxxxxxxxxxxxxxxxxxxxxxxxxxx
 
------------------------------------------------------------------------ <-- SCF
SCF loop      Energy                           Energy gain       Timer   <-- SCF
                                               per atom          (sec)   <-- SCF
------------------------------------------------------------------------ <-- SCF
Initial  -1.37886216E+003                                          5.72  <-- SCF
      1  -1.38386035E+003                    6.24774469E-001       5.73  <-- SCF
      2  -1.38391796E+003                    7.20138878E-003       5.73  <-- SCF
      3  -1.38361340E+003                   -3.80706036E-002       5.75  <-- SCF
      4  -1.38355772E+003                   -6.95904490E-003       5.75  <-- SCF
      5  -1.38355825E+003                    6.58211221E-005       5.77  <-- SCF
      6  -1.38355833E+003                    9.24736551E-006       5.78  <-- SCF
      7  -1.38355834E+003                    2.37253798E-006       5.78  <-- SCF
      8  -1.38355835E+003                    3.92059674E-007       5.78  <-- SCF
      9  -1.38355835E+003                    1.42120642E-007       5.80  <-- SCF
------------------------------------------------------------------------ <-- SCF
 
Final energy =  -1383.558348535     eV
(energy not corrected for finite basis set)
 
 
 ************************************** Forces **************************************
 *                                                                                  *
 *                           Cartesian components (eV/A)                            *
 * -------------------------------------------------------------------------------- *
 *                         x                    y                    z              *
 *                                                                                  *
 * Si              1     -0.07693              0.44232             -0.21970         *
 * Si              2      0.83244              0.89373             -1.18394         *
 * Si              3     -0.24455              1.52283              0.94284         *
 * Si              4      0.09446             -0.77107              0.79731         *
 * Si              5     -1.37786              0.18247              0.56763         *
 * Si              6      0.27169             -0.69751             -0.03891         *
 * Si              7     -0.23731             -0.45420              0.43084         *
 * Si              8      0.73807             -1.11857             -1.29606         *
 *                                                                                  *
 ************************************************************************************
  
            xxxxxxxxxxxxxxxxxxxxxxxxxxxxxxxxxxxxxxxxxxxxxxxxxxxxxxxxxxxxxx
            x                                               MD Data:     x
            x                                                            x
            x              time :      0.045000                   ps     x
            x                                                            x
            x   Potential Energy:  -1383.549908                   eV     x
            x   Kinetic   Energy:      0.366779                   eV     x
            x   Total     Energy:  -1383.183128                   eV     x
            x   Hamilt    Energy:  -1383.183128                   eV     x
            x                                                            x
            x        Temperature:    354.691611                    K     x
            xxxxxxxxxxxxxxxxxxxxxxxxxxxxxxxxxxxxxxxxxxxxxxxxxxxxxxxxxxxxxx
 

--------------------------------------------------------------------------------
 ... finished MD iteration          9

================================================================================
 Starting MD iteration         10 ...
================================================================================
 
                           -------------------------------
                                     Cell Contents
                           -------------------------------
 
            xxxxxxxxxxxxxxxxxxxxxxxxxxxxxxxxxxxxxxxxxxxxxxxxxxxxxxxxxxxxxx
            x  Element    Atom        Fractional coordinates of atoms    x
            x            Number           u          v          w        x
            x------------------------------------------------------------x
            x   Si         1          0.007412   0.000503   0.026733     x
            x   Si         2         -0.001180   0.512730   0.553885     x
            x   Si         3          0.495966   0.002959   0.475069     x
            x   Si         4          0.518502   0.514416  -0.012222     x
            x   Si         5          0.764871   0.230716   0.749520     x
            x   Si         6          0.248836   0.303084   0.248096     x
            x   Si         7          0.260191   0.778899   0.761726     x
            x   Si         8          0.756354   0.745244   0.278077     x
            xxxxxxxxxxxxxxxxxxxxxxxxxxxxxxxxxxxxxxxxxxxxxxxxxxxxxxxxxxxxxx
 
------------------------------------------------------------------------ <-- SCF
SCF loop      Energy                           Energy gain       Timer   <-- SCF
                                               per atom          (sec)   <-- SCF
------------------------------------------------------------------------ <-- SCF
Initial  -1.37493288E+003                                          5.83  <-- SCF
      1  -1.38344541E+003                    1.06406623E+000       5.84  <-- SCF
      2  -1.38363730E+003                    2.39863094E-002       5.86  <-- SCF
      3  -1.38346679E+003                   -2.13134215E-002       5.86  <-- SCF
      4  -1.38343015E+003                   -4.58045154E-003       5.86  <-- SCF
      5  -1.38343062E+003                    5.86096112E-005       5.86  <-- SCF
      6  -1.38343078E+003                    1.99026599E-005       5.86  <-- SCF
      7  -1.38343078E+003                   -4.78883701E-008       5.88  <-- SCF
      8  -1.38343078E+003                    1.90511525E-007       5.88  <-- SCF
------------------------------------------------------------------------ <-- SCF
 
Final energy =  -1383.430780396     eV
(energy not corrected for finite basis set)
 
 
 ************************************** Forces **************************************
 *                                                                                  *
 *                           Cartesian components (eV/A)                            *
 * -------------------------------------------------------------------------------- *
 *                         x                    y                    z              *
 *                                                                                  *
 * Si              1     -0.06195              0.68332             -0.54029         *
 * Si              2      0.76583              0.16606             -1.13112         *
 * Si              3     -0.78201              2.09222              1.30620         *
 * Si              4     -0.37647             -0.25438             -0.04086         *
 * Si              5     -2.00359              0.25982              0.61083         *
 * Si              6      0.14349             -1.17032              0.12030         *
 * Si              7      1.03166             -0.46929              0.55002         *
 * Si              8      1.28305             -1.30744             -0.87508         *
 *                                                                                  *
 ************************************************************************************
  
            xxxxxxxxxxxxxxxxxxxxxxxxxxxxxxxxxxxxxxxxxxxxxxxxxxxxxxxxxxxxxx
            x                                               MD Data:     x
            x                                                            x
            x              time :      0.050000                   ps     x
            x                                                            x
            x   Potential Energy:  -1383.422340                   eV     x
            x   Kinetic   Energy:      0.295246                   eV     x
            x   Total     Energy:  -1383.127094                   eV     x
            x   Hamilt    Energy:  -1383.127094                   eV     x
            x                                                            x
            x        Temperature:    285.515346                    K     x
            xxxxxxxxxxxxxxxxxxxxxxxxxxxxxxxxxxxxxxxxxxxxxxxxxxxxxxxxxxxxxx
 

Writing analysis data to Si__2_.castep_bin

Writing model to Si__2_.check

--------------------------------------------------------------------------------
 ... finished MD iteration         10

================================================================================
 Starting MD iteration         11 ...
================================================================================
 
                           -------------------------------
                                     Cell Contents
                           -------------------------------
 
            xxxxxxxxxxxxxxxxxxxxxxxxxxxxxxxxxxxxxxxxxxxxxxxxxxxxxxxxxxxxxx
            x  Element    Atom        Fractional coordinates of atoms    x
            x            Number           u          v          w        x
            x------------------------------------------------------------x
            x   Si         1          0.006044   0.004673   0.025263     x
            x   Si         2         -0.001416   0.518329   0.553631     x
            x   Si         3          0.498418   0.002126   0.477527     x
            x   Si         4          0.518690   0.515012  -0.010531     x
            x   Si         5          0.763317   0.234810   0.752729     x
            x   Si         6          0.251265   0.306155   0.248418     x
            x   Si         7          0.259164   0.780426   0.760430     x
            x   Si         8          0.757115   0.739855   0.283380     x
            xxxxxxxxxxxxxxxxxxxxxxxxxxxxxxxxxxxxxxxxxxxxxxxxxxxxxxxxxxxxxx
 
------------------------------------------------------------------------ <-- SCF
SCF loop      Energy                           Energy gain       Timer   <-- SCF
                                               per atom          (sec)   <-- SCF
------------------------------------------------------------------------ <-- SCF
Initial  -1.37791983E+003                                          5.89  <-- SCF
      1  -1.38365094E+003                    7.16387758E-001       5.89  <-- SCF
      2  -1.38374667E+003                    1.19668039E-002       5.91  <-- SCF
      3  -1.38348181E+003                   -3.31081391E-002       5.91  <-- SCF
      4  -1.38343222E+003                   -6.19821903E-003       5.91  <-- SCF
      5  -1.38343341E+003                    1.48888513E-004       5.92  <-- SCF
      6  -1.38343343E+003                    2.34861868E-006       5.94  <-- SCF
      7  -1.38343345E+003                    2.75595478E-006       5.95  <-- SCF
      8  -1.38343346E+003                    1.19555516E-006       5.95  <-- SCF
      9  -1.38343347E+003                    7.45850503E-007       5.95  <-- SCF
------------------------------------------------------------------------ <-- SCF
 
Final energy =  -1383.433467254     eV
(energy not corrected for finite basis set)
 
 
 ************************************** Forces **************************************
 *                                                                                  *
 *                           Cartesian components (eV/A)                            *
 * -------------------------------------------------------------------------------- *
 *                         x                    y                    z              *
 *                                                                                  *
 * Si              1      0.26308              1.02188             -0.61075         *
 * Si              2      0.55568             -1.28099             -1.17667         *
 * Si              3     -0.60027              2.05884              1.00608         *
 * Si              4     -0.85608              0.04275             -0.58037         *
 * Si              5     -1.50080             -0.16311              1.05801         *
 * Si              6     -0.19856             -1.56998              0.14075         *
[...]
 *                                                                                  *
 *                           Cartesian components (eV/A)                            *
 * -------------------------------------------------------------------------------- *
 *                         x                    y                    z              *
 *                                                                                  *
 * Si              1      0.97462             -0.31447             -1.07473         *
 * Si              2      1.14253              0.38629             -0.75996         *
 * Si              3     -1.73436              0.91186              1.49306         *
 * Si              4      1.82539             -0.72801             -1.39226         *
 * Si              5      0.24527             -1.40925              0.27565         *
 * Si              6     -1.41776              0.52831             -0.48898         *
 * Si              7      0.28885             -0.21132              0.63789         *
 * Si              8     -1.32453              0.83659              1.30933         *
 *                                                                                  *
 ************************************************************************************
  
            xxxxxxxxxxxxxxxxxxxxxxxxxxxxxxxxxxxxxxxxxxxxxxxxxxxxxxxxxxxxxx
            x                                               MD Data:     x
            x                                                            x
            x              time :      0.240000                   ps     x
            x                                                            x
            x   Potential Energy:  -1383.459182                   eV     x
            x   Kinetic   Energy:      1.060687                   eV     x
            x   Total     Energy:  -1382.398495                   eV     x
            x   Hamilt    Energy:  -1382.398495                   eV     x
            x                                                            x
            x        Temperature:   1025.730292                    K     x
            xxxxxxxxxxxxxxxxxxxxxxxxxxxxxxxxxxxxxxxxxxxxxxxxxxxxxxxxxxxxxx
 

--------------------------------------------------------------------------------
 ... finished MD iteration         48

================================================================================
 Starting MD iteration         49 ...
================================================================================
 
                           -------------------------------
                                     Cell Contents
                           -------------------------------
 
            xxxxxxxxxxxxxxxxxxxxxxxxxxxxxxxxxxxxxxxxxxxxxxxxxxxxxxxxxxxxxx
            x  Element    Atom        Fractional coordinates of atoms    x
            x            Number           u          v          w        x
            x------------------------------------------------------------x
            x   Si         1          0.012666   0.055279  -0.011462     x
            x   Si         2          0.002181   0.539032   0.479633     x
            x   Si         3          0.528900   0.013945   0.481111     x
            x   Si         4          0.492624   0.555974  -0.012215     x
            x   Si         5          0.759004   0.304306   0.726880     x
            x   Si         6          0.263962   0.293630   0.245267     x
            x   Si         7          0.258164   0.781087   0.737990     x
            x   Si         8          0.768601   0.803012   0.232639     x
            xxxxxxxxxxxxxxxxxxxxxxxxxxxxxxxxxxxxxxxxxxxxxxxxxxxxxxxxxxxxxx
 
------------------------------------------------------------------------ <-- SCF
SCF loop      Energy                           Energy gain       Timer   <-- SCF
                                               per atom          (sec)   <-- SCF
------------------------------------------------------------------------ <-- SCF
Initial  -1.36007743E+003                                         10.88  <-- SCF
      1  -1.38437417E+003                    3.03709293E+000      10.88  <-- SCF
      2  -1.38509578E+003                    9.02009020E-002      10.89  <-- SCF
      3  -1.38374437E+003                   -1.68925890E-001      10.91  <-- SCF
      4  -1.38344621E+003                   -3.72699451E-002      10.91  <-- SCF
      5  -1.38344765E+003                    1.79795379E-004      10.91  <-- SCF
      6  -1.38344750E+003                   -1.86991061E-005      10.91  <-- SCF
      7  -1.38344754E+003                    4.93921387E-006      10.91  <-- SCF
      8  -1.38344754E+003                   -2.06176768E-007      10.92  <-- SCF
      9  -1.38344754E+003                    5.88417165E-007      10.94  <-- SCF
------------------------------------------------------------------------ <-- SCF
 
Final energy =  -1383.447541115     eV
(energy not corrected for finite basis set)
 
 
 ************************************** Forces **************************************
 *                                                                                  *
 *                           Cartesian components (eV/A)                            *
 * -------------------------------------------------------------------------------- *
 *                         x                    y                    z              *
 *                                                                                  *
 * Si              1      0.14116             -0.27265             -1.04479         *
 * Si              2      1.44711              2.37862              0.97577         *
 * Si              3     -2.69624              1.54258              1.87969         *
 * Si              4      1.58107             -1.09451             -0.06131         *
 * Si              5     -0.91278             -0.86295              1.71902         *
 * Si              6      0.66049             -0.10607             -1.26391         *
 * Si              7     -0.11597              0.13407             -1.04138         *
 * Si              8     -0.10484             -1.71908             -1.16308         *
 *                                                                                  *
 ************************************************************************************
  
            xxxxxxxxxxxxxxxxxxxxxxxxxxxxxxxxxxxxxxxxxxxxxxxxxxxxxxxxxxxxxx
            x                                               MD Data:     x
            x                                                            x
            x              time :      0.245000                   ps     x
            x                                                            x
            x   Potential Energy:  -1383.439101                   eV     x
            x   Kinetic   Energy:      1.079221                   eV     x
            x   Total     Energy:  -1382.359879                   eV     x
            x   Hamilt    Energy:  -1382.359879                   eV     x
            x                                                            x
            x        Temperature:   1043.653761                    K     x
            xxxxxxxxxxxxxxxxxxxxxxxxxxxxxxxxxxxxxxxxxxxxxxxxxxxxxxxxxxxxxx
 

--------------------------------------------------------------------------------
 ... finished MD iteration         49

================================================================================
 Starting MD iteration         50 ...
================================================================================
 
                           -------------------------------
                                     Cell Contents
                           -------------------------------
 
            xxxxxxxxxxxxxxxxxxxxxxxxxxxxxxxxxxxxxxxxxxxxxxxxxxxxxxxxxxxxxx
            x  Element    Atom        Fractional coordinates of atoms    x
            x            Number           u          v          w        x
            x------------------------------------------------------------x
            x   Si         1          0.013160   0.046390  -0.012188     x
            x   Si         2          0.007546   0.546043   0.472251     x
            x   Si         3          0.530991   0.018625   0.489380     x
            x   Si         4          0.498535   0.559596  -0.018526     x
            x   Si         5          0.762332   0.307022   0.721253     x
            x   Si         6          0.260442   0.298421   0.239017     x
            x   Si         7          0.257835   0.780774   0.741263     x
            x   Si         8          0.762860   0.810259   0.235999     x
            xxxxxxxxxxxxxxxxxxxxxxxxxxxxxxxxxxxxxxxxxxxxxxxxxxxxxxxxxxxxxx
 
------------------------------------------------------------------------ <-- SCF
SCF loop      Energy                           Energy gain       Timer   <-- SCF
                                               per atom          (sec)   <-- SCF
------------------------------------------------------------------------ <-- SCF
Initial  -1.36517471E+003                                         10.97  <-- SCF
      1  -1.38329982E+003                    2.26563830E+000      10.97  <-- SCF
      2  -1.38444678E+003                    1.43370421E-001      10.98  <-- SCF
      3  -1.38347208E+003                   -1.21837243E-001      11.00  <-- SCF
      4  -1.38326819E+003                   -2.54862401E-002      11.02  <-- SCF
      5  -1.38327224E+003                    5.06253041E-004      11.02  <-- SCF
      6  -1.38327240E+003                    1.88367322E-005      11.02  <-- SCF
      7  -1.38327248E+003                    1.04812633E-005      11.03  <-- SCF
      8  -1.38327249E+003                    1.24311962E-006      11.05  <-- SCF
      9  -1.38327249E+003                    3.76068639E-007      11.05  <-- SCF
------------------------------------------------------------------------ <-- SCF
 
Final energy =  -1383.272492060     eV
(energy not corrected for finite basis set)
 
 
 ************************************** Forces **************************************
 *                                                                                  *
 *                           Cartesian components (eV/A)                            *
 * -------------------------------------------------------------------------------- *
 *                         x                    y                    z              *
 *                                                                                  *
 * Si              1     -0.11777              2.03911             -0.84250         *
 * Si              2      1.14851              1.73798              0.86211         *
 * Si              3     -1.69570              0.90962              0.60052         *
 * Si              4      1.12335             -1.50667              1.64928         *
 * Si              5     -0.92526             -1.06657              0.83226         *
 * Si              6      0.79437             -0.84234             -0.10616         *
 * Si              7     -0.59465              0.34034             -1.57842         *
 * Si              8      0.26716             -1.61146             -1.41710         *
 *                                                                                  *
 ************************************************************************************
  
            xxxxxxxxxxxxxxxxxxxxxxxxxxxxxxxxxxxxxxxxxxxxxxxxxxxxxxxxxxxxxx
            x                                               MD Data:     x
            x                                                            x
            x              time :      0.250000                   ps     x
            x                                                            x
            x   Potential Energy:  -1383.264052                   eV     x
            x   Kinetic   Energy:      0.938270                   eV     x
            x   Total     Energy:  -1382.325781                   eV     x
            x   Hamilt    Energy:  -1382.325781                   eV     x
            x                                                            x
            x        Temperature:    907.347703                    K     x
            xxxxxxxxxxxxxxxxxxxxxxxxxxxxxxxxxxxxxxxxxxxxxxxxxxxxxxxxxxxxxx
 

Writing analysis data to Si__2_.castep_bin

Writing model to Si__2_.check

--------------------------------------------------------------------------------
 ... finished MD iteration         50
 Finished MD
  
  **********************************************************
  *** There were at least     1 warnings during this run ***
  *** => please check the whole of this file carefully!  ***
  **********************************************************

Writing analysis data to Si__2_.castep_bin

Writing model to Si__2_.check
 
 ************************************** Forces **************************************
 *                                                                                  *
 *                           Cartesian components (eV/A)                            *
 * -------------------------------------------------------------------------------- *
 *                         x                    y                    z              *
 *                                                                                  *
 * Si              1     -1.16268              3.08297             -1.29180         *
 * Si              2      1.95056              1.82994              1.52302         *
 * Si              3     -1.89203              0.24265             -0.56688         *
 * Si              4      1.72671             -0.33396              2.28702         *
 * Si              5     -0.91587             -1.27372              1.25272         *
 * Si              6      0.54598             -1.21405              0.16202         *
 * Si              7     -0.72816              0.92724             -1.89615         *
 * Si              8      0.56031             -0.60451             -1.87461         *
 *                                                                                  *
 ************************************************************************************
 
 ***************** Stress Tensor *****************
 *                                               *
 *          Cartesian components (GPa)           *
 * --------------------------------------------- *
 *             x             y             z     *
 *                                               *
 *  x    -58.632203      0.937382      1.043467  *
 *  y      0.937382    -56.998916     -0.295894  *
 *  z      1.043467     -0.295894    -53.410586  *
 *                                               *
 *  Pressure:   56.3472                          *
 *                                               *
 *************************************************
 
 Pseudo atomic calculation performed for Si 3s2 3p2
 
 Converged in 15 iterations to a total energy of -164.8513 eV
Charge spilling parameter for spin component 1 = 0.87%
 
            Orbital Populations       
     Ion    Atom   Orbital             Charge
  -------------------------------------------
     Si     1      S                    1.360
     Si     1      Px                   0.871
     Si     1      Py                   0.887
     Si     1      Pz                   0.876
     Si     2      S                    1.340
     Si     2      Px                   0.878
     Si     2      Py                   0.886
     Si     2      Pz                   0.896
     Si     3      S                    1.349
     Si     3      Px                   0.899
     Si     3      Py                   0.890
     Si     3      Pz                   0.874
     Si     4      S                    1.350
     Si     4      Px                   0.881
     Si     4      Py                   0.868
     Si     4      Pz                   0.892
     Si     5      S                    1.364
     Si     5      Px                   0.869
     Si     5      Py                   0.874
     Si     5      Pz                   0.886
     Si     6      S                    1.367
     Si     6      Px                   0.876
     Si     6      Py                   0.895
     Si     6      Pz                   0.869
     Si     7      S                    1.344
     Si     7      Px                   0.884
     Si     7      Py                   0.882
     Si     7      Pz                   0.887
     Si     8      S                    1.331
     Si     8      Px                   0.899
     Si     8      Py                   0.874
     Si     8      Pz                   0.902
  -------------------------------------------
                           Total:      32.000
  -------------------------------------------
 
     Atomic Populations (Mulliken)
     -----------------------------
Species          Ion     s       p       d       f      Total   Charge (e)
==========================================================================
  Si              1     1.360   2.634   0.000   0.000   3.994     0.006
  Si              2     1.340   2.660   0.000   0.000   4.001    -0.001
  Si              3     1.349   2.664   0.000   0.000   4.013    -0.013
  Si              4     1.350   2.641   0.000   0.000   3.991     0.009
  Si              5     1.364   2.629   0.000   0.000   3.993     0.007
  Si              6     1.367   2.639   0.000   0.000   4.006    -0.006
  Si              7     1.344   2.653   0.000   0.000   3.996     0.004
  Si              8     1.331   2.675   0.000   0.000   4.007    -0.007
==========================================================================
 
                 Bond                   Population      Length (A)
======================================================================
              Si 3 -- Si 8                   0.80        2.18164
              Si 4 -- Si 7                   0.79        2.20300
              Si 2 -- Si 5                   0.77        2.29933
              Si 2 -- Si 6                   0.77        2.30195
              Si 1 -- Si 8                   0.76        2.30408
              Si 2 -- Si 8                   0.75        2.33896
              Si 1 -- Si 6                   0.75        2.35327
              Si 2 -- Si 7                   0.74        2.36787
              Si 3 -- Si 5                   0.74        2.37003
              Si 1 -- Si 7                   0.74        2.37468
              Si 4 -- Si 6                   0.74        2.37483
              Si 3 -- Si 7                   0.74        2.39587
              Si 4 -- Si 8                   0.73        2.41335
              Si 4 -- Si 5                   0.73        2.43534
              Si 1 -- Si 5                   0.72        2.44018
              Si 3 -- Si 6                   0.70        2.51321
======================================================================
 
 
     Hirshfeld Analysis
     ------------------
Species   Ion     Hirshfeld Charge (e)
======================================
  Si       1                -0.00
  Si       2                -0.00
  Si       3                -0.01
  Si       4                -0.00
  Si       5                 0.00
  Si       6                -0.00
  Si       7                 0.00
  Si       8                -0.00
======================================
 

Writing analysis data to Si__2_.castep_bin

Writing model to Si__2_.check
 
 A BibTeX formatted list of references used in this run has been written to 
 Si__2_.bib
 
Initialisation time =      4.41 s
Calculation time    =      6.94 s
Finalisation time   =      0.02 s
Total time          =     11.36 s
 
Overall parallel efficiency rating: Terrible (32%)
 
Data was distributed by:-
G-vector (4-way); efficiency rating: Poor (40%)
k-point (4-way); efficiency rating: Mediocre (56%)
 
Parallel notes:
1) Calculation only took 11.3 s, so efficiency estimates may be inaccurate.
