250
energy=-937.191 config_type=nep2xyz pbc="T T T" Lattice="0.0 16.42598 16.42598 16.42598 0.0 16.42598 16.42598 16.42598 0.0" Properties=species:S:1:pos:R:3:force:R:3
Te 3.391217 3.024926 3.37478 0.07834588 0.3368932 -0.1323393
Te 3.111386 6.409187 6.132068 0.2087532 0.8042674 0.5025407
Te 3.474296 9.558125 9.768056 -1.073536 0.2146508 0.01524496
Te 3.164216 12.9924 13.06298 0.2756211 0.6718403 -0.2943338
Te 3.115436 16.25154 16.40651 0.5860147 0.3637972 -0.1937239
Te 6.694716 3.141713 6.838006 0.2792169 0.387735 -0.1960083
Te 6.071651 6.380761 9.716123 0.5103343 0.7009271 0.354237
Te 6.398343 9.935867 13.07983 0.5122729 0.8338803 0.1170889
Te 6.36859 13.68916 16.30622 -0.1448942 -0.8487421 0.4622963
Te 6.929429 16.36369 19.80069 -0.6979968 0.3124831 -0.8893127
Te 9.699815 3.348478 9.773224 0.6589141 0.6164816 0.1010753
Te 9.789206 6.645023 12.90832 0.06970189 0.1997799 0.4848897
Te 9.820208 9.979181 16.39875 0.03585707 0.1433518 0.1355773
Te 10.0576 13.10029 19.64438 -0.4061705 0.1372654 -0.02442226
Te 9.662674 16.44702 23.24405 0.334145 -0.3913328 -0.5374905
Te 13.14109 3.332742 13.38148 0.01087754 -0.1118994 0.00568072
Te 13.34809 6.39502 16.49269 0.1744476 1.123849 -0.04977556
Te 13.16443 9.99802 19.77851 -0.1220899 -0.2874703 -0.0184667
Te 13.13129 13.01972 23.07176 -0.1784366 -0.5605437 -0.6087604
Te 13.06867 16.52371 26.40486 -0.1502825 -0.2608916 -0.00741639
Te 16.69938 3.146259 16.43196 -0.4198956 0.5172364 -0.0223268
Te 16.25531 6.345654 19.56404 0.1855078 0.483004 0.358281
Te 16.22012 9.727201 22.98285 -0.02644534 0.4003059 -0.08693344
Te 16.43005 13.26091 26.26012 -0.09078443 -0.4208912 -0.08643105
Te 16.48695 16.49126 29.51195 -0.1335077 0.01162854 -0.1926402
Te 6.312956 6.820134 3.230887 0.2304299 -0.2882199 0.9028215
Te 6.291735 9.584814 6.628399 0.5626628 0.4340177 0.09846142
Te 6.749067 13.17323 9.973722 -0.6751783 -0.2082696 -0.281223
Te 6.765349 16.11979 13.23257 -0.4129197 2.199493 -0.0132353
Te 6.615801 19.9747 16.75565 -0.4320408 -0.71462 -0.03393339
Te 9.991709 6.531721 6.36342 -0.4063111 0.07686651 0.06175185
Te 9.819387 9.795329 10.05744 -0.156699 0.03984435 -0.4847824
Te 10.14558 13.37114 12.97187 -0.3341848 -0.5742856 -0.5723525
Te 9.835149 16.34768 16.2788 0.2901748 0.560139 -0.1103084
Te 10.017 19.83749 19.33368 -1.16672 -0.1814195 0.9552726
Te 12.94403 6.534214 9.990973 0.4846391 0.522564 -0.2413112
Te 13.22577 9.827904 13.19631 -0.1777731 0.02927774 0.2585289
Te 13.1032 13.2677 16.02985 0.318281 -0.4988939 1.03227
Te 13.24089 16.44665 19.79713 -0.2143462 -0.2624181 0.3771962
Te 13.27601 19.44176 22.8801 -0.01100483 0.101362 0.2573858
Te 16.4845 6.905714 13.10045 -0.1023246 -0.7075571 0.04790817
Te 16.39724 9.794168 16.43593 0.6916052 0.3353718 -0.02138324
Te 16.49321 13.12897 19.95228 -0.06067261 -0.3709459 -0.3897522
Te 16.5142 16.49416 22.60907 -0.4072095 -0.6285379 0.5237577
Te 16.4313 19.52805 26.355 -0.1860526 0.3504831 -0.0750776
Te 19.86483 6.808164 16.49605 -0.02123928 -0.2138702 0.3025766
Te 19.63205 9.890013 19.70696 0.06223192 -0.03832749 -0.1463421
Te 19.60379 13.34721 22.78002 0.2247665 -0.7427801 0.2412146
Te 19.65581 16.27408 25.99024 -0.01697383 0.1646917 0.3554882
Te 19.90394 19.78944 29.84644 -0.5370154 -0.2045321 -0.4455517
Te 9.895224 9.920437 3.28414 0.4677052 -0.1322998 0.9570456
Te 9.739688 13.18642 6.336917 -0.00732104 -0.523455 0.6522565
Te 9.697993 16.61606 9.541221 0.3772711 -0.250171 -0.03992373
Te 9.687663 19.75827 13.19363 0.4135354 0.09296848 -0.3514531
Te 9.934947 23.14673 16.09558 0.3904768 -0.3817648 0.6869067
Te 13.36281 9.688817 6.817721 -1.306483 0.2477345 -0.3255394
Te 13.33747 13.0988 10.04557 -0.5604278 0.5336962 -1.413263
Te 12.91728 16.55883 12.90155 0.4866561 -0.1280275 0.4732963
Te 12.86404 19.48246 16.28244 0.5095382 0.4274884 -0.00462242
Te 12.85007 22.92515 19.612 0.8761119 -0.1116643 0.04325854
Te 16.48133 9.72129 9.743648 -0.08832247 -0.00180113 0.2927469
Te 16.60839 13.24394 13.26231 0.0596018 -0.1515599 -0.1712922
Te 16.52253 16.57376 16.05325 -0.04127781 -0.3042447 0.3180211
Te 16.43804 19.63546 19.85071 0.119715 -0.6486621 -0.1568026
Te 16.37206 22.87141 23.10926 -0.3209576 0.00295386 -0.1478663
Te 19.72521 9.968966 13.10686 0.60729 0.02239033 0.06756037
Te 19.96514 13.31033 16.18408 -0.6041677 -0.4072278 0.2894826
Te 19.82231 16.52742 19.34863 -0.4202435 0.1294706 1.491429
Te 19.75931 19.82209 23.26138 -0.03582961 -0.04654235 -0.6736444
Te 19.78227 23.05558 26.45182 -0.07827043 -0.4688345 -0.2172796
Te 23.04661 9.811573 16.63344 -0.7719495 0.2640982 -0.463101
Te 22.93099 13.13231 19.7107 0.2879087 0.2546437 0.09503293
Te 23.0265 16.38488 23.13929 0.01491095 -0.3273212 -0.3174901
Te 23.02358 19.72135 26.55028 -0.1502034 -0.0641437 -0.1891682
Te 22.98988 22.89902 29.63023 0.2655407 -0.00636656 -0.1463183
Te 13.31392 12.86268 3.317929 -0.1551273 0.9645125 0.03666849
Te 13.45831 16.37669 6.495139 -0.7264122 -0.3935571 0.01246687
Te 13.06551 19.84739 9.799136 0.6707132 -0.523531 0.0309923
Te 13.21054 22.99158 12.8663 -0.1461096 0.0047713 0.4126041
Te 12.83976 26.17762 16.2656 0.5282939 0.1054863 0.3648341
Te 16.56444 13.07562 6.287814 -0.1218748 0.113323 0.1401642
Te 16.53045 16.34509 9.550384 -0.1044587 0.4358244 0.3126244
Te 16.24669 19.77548 13.2493 0.1120164 0.05016841 -0.1309022
Te 16.61886 23.22763 16.42548 0.271139 -0.4362884 0.3147906
Te 16.51847 26.23373 19.81127 -0.02902794 -0.01059483 -0.2452344
Te 19.79098 13.06421 9.89956 -0.01088219 0.112903 -0.6840137
Te 19.5059 16.80206 12.731 0.00834745 -0.5597886 0.2886352
Te 19.8702 19.52896 16.26328 -0.3290937 0.4546714 0.2557798
Te 20.0345 23.02949 19.67867 -0.6301655 -0.2811787 0.103361
Te 19.57374 26.37433 23.04218 0.1257265 -0.01311408 0.05721813
Te 23.30972 13.15726 13.10751 -0.7626605 -0.1321087 -0.2339276
Te 23.01617 16.46919 16.50357 0.0943555 0.05457554 0.02121501
Te 22.86485 19.79097 19.83127 -0.1006448 -0.2438744 -0.1967136
Te 22.82386 23.10056 22.98987 -0.2245153 0.07253 0.3607165
Te 23.17801 26.22229 26.24142 -0.9792961 0.2588444 -0.00618904
Te 26.36837 13.26485 16.37129 0.02219973 0.00495727 -0.03200803
Te 26.56002 16.468 19.48191 -0.4766594 -0.06209888 0.2634835
Te 26.0871 19.5792 23.19382 0.2965514 0.3270151 -0.353253
Te 26.27026 23.12253 26.22966 -0.0829932 -0.2076422 0.2800479
Te 26.41368 26.38112 29.50101 -0.2855893 -0.2214888 0.03184768
Te 16.50441 16.32235 3.114332 0.3164476 0.1755684 0.05191583
Te 16.64734 19.71486 6.617259 -0.3812092 0.04039692 -0.02905666
Te 16.20783 23.04965 10.10444 0.9383885 0.1995429 -0.6081412
Te 16.65684 26.21088 12.79826 -0.6788159 0.3458226 0.2064997
Te 16.44773 29.71118 15.92537 -0.1884193 -0.4442994 0.9775595
Te 19.59966 16.61033 6.542267 0.1970153 -0.2255124 -0.8439327
Te 19.70941 19.68976 9.646977 0.3249598 0.03787138 0.3878649
Te 19.84416 22.94974 13.07549 0.1796355 1.610494 0.07918528
Te 19.54939 26.06835 16.41716 0.2678891 0.02230036 0.06176823
Te 19.93934 29.41359 19.49804 0.1491798 0.07440725 0.3484995
Te 23.02666 16.34344 9.972098 -0.1183725 0.2426918 -0.37569
Te 22.73589 19.66759 13.00223 0.1631388 0.4007676 0.3995815
Te 23.3782 23.31628 16.59072 -0.5402065 -0.1656746 0.00736543
Te 23.17504 26.25226 19.4498 -0.3292673 0.2556897 0.9841126
Te 22.90633 29.93866 22.73622 0.8769277 -0.7339061 0.4219353
Te 25.90239 16.70667 13.1711 0.7928703 -0.1080467 -0.1981285
Te 26.26019 19.97697 16.54466 0.00853938 -0.137172 -0.1576804
Te 26.33999 22.97445 19.89478 0.06549821 -0.2282381 -0.2414781
Te 26.14933 26.3859 22.97245 -0.3789663 -0.114197 0.1450867
Te 26.2305 29.85064 26.21275 0.3324302 -0.3487614 -0.1123537
Te 29.69994 16.64584 16.54117 -0.5384399 -0.3125164 -0.3349411
Te 29.3885 19.48685 19.84357 0.2038643 0.8663979 0.4887812
Te 29.42212 22.74264 22.94201 0.1123549 0.4027297 -0.4131207
Te 29.55814 26.16409 26.27671 0.2105703 0.3592584 -0.6213349
Te 29.46586 29.46675 29.43715 0.3962111 0.2363141 0.1506056
Pb 16.35522 16.44483 32.69471 0.2667019 0.1447746 0.1748448
Pb 0.1256873 3.243373 3.336045 -0.06579055 -0.2302751 -0.0018685
Pb 16.33438 23.00568 6.679729 -0.371407 -0.5322675 -0.1498742
Pb 0.2965769 9.837135 9.586134 -0.523752 0.02959741 0.783052
Pb 32.53525 29.47 29.40089 0.3263735 -0.08244744 -0.1282638
Pb 19.67582 32.58803 19.55283 0.04303429 0.1621909 -0.1588417
Pb 3.581648 3.43329 6.503542 -0.5161228 -0.6120936 0.02130023
Pb 3.02002 6.410166 9.156461 0.1245983 -0.010976 0.6484799
Pb 19.66273 26.38834 13.27104 -0.03234372 -0.3745698 -0.01401471
Pb 19.4601 29.20838 16.34097 0.2738142 0.3967748 -0.2761081
Pb 6.195443 0.1712198 6.204591 0.3776673 -0.2051187 0.9408327
Pb 6.6855 3.449429 9.987802 -0.5113155 -0.3752763 -0.07764222
Pb 6.550882 7.131832 13.6282 0.2268705 -1.261125 -0.3559768
Pb 6.623032 10.27929 16.53336 -0.00057073 -0.3302274 -0.5042519
Pb 6.950362 13.16698 19.66111 -0.2706037 -0.1350163 -0.1723261
Pb 9.699563 0.3434395 9.891252 0.1939791 -0.8481045 0.3399474
Pb 25.93719 20.02085 13.29156 0.270048 -0.5651978 0.1868142
Pb 10.25274 6.811515 16.72623 -0.6069064 -0.1580312 -0.1435994
Pb 26.26839 26.04615 19.92022 0.1767229 0.477169 -0.4399781
Pb 26.15277 29.59814 22.98939 -0.04614308 0.09165596 -0.07198415
Pb 29.56565 16.37995 13.45218 -0.0150555 0.05510466 -0.1983373
Pb 29.58241 19.89891 16.90669 0.05755888 -1.01126 -0.7657446
Pb 29.45208 22.75913 19.75307 0.208618 0.1071215 0.3431284
Pb 29.1552 26.05857 22.97524 0.5536973 -0.2433406 0.2401122
Pb 13.04639 13.17347 26.10991 -0.2725826 -0.1427605 0.9177971
Pb 3.423318 3.292827 0.1525256 -0.2867413 -0.2914128 -0.1402442
Pb 19.47996 6.377841 19.56169 0.1379809 0.1765901 -0.3136778
Pb 19.42432 9.669103 22.82318 0.2775237 0.121698 -0.2389199
Pb 19.45044 12.7676 25.99538 0.428115 0.4810203 0.2979191
Pb 3.562919 16.33714 13.02625 -0.4238982 0.01032583 0.1535826
Pb 6.628027 3.645791 3.821488 0.09306285 -0.04805612 -0.8052104
Pb 6.743776 6.337758 6.769276 0.05383685 0.3263451 -0.3214232
Pb 6.334488 9.928 9.942516 1.032829 -0.05562812 -0.1496304
Pb 6.522655 13.36818 13.26665 -0.2504295 -1.873007 -0.3008502
Pb 6.780454 16.69858 16.60193 -0.3952813 0.2362973 0.00875474
Pb 10.20549 19.38764 23.03123 -0.1617297 0.4883854 -0.1724145
Pb 9.944708 6.566587 9.799988 -0.3616067 0.00111754 -0.1842304
Pb 9.69915 9.710608 13.32948 0.2585391 0.3606726 0.05530346
Pb 9.427809 13.32917 15.87314 0.4942434 -0.3598366 0.7178279
Pb 9.872373 16.43055 19.32129 0.5464441 -0.1358232 0.3008771
Pb 12.95275 3.588396 10.38321 0.1481487 -0.7287441 -0.3419985
Pb 13.20084 6.518157 13.37411 0.09073867 0.1479781 -0.2823411
Pb 13.4561 9.795798 16.64631 -0.6530904 0.2507464 -0.2772425
Pb 13.04124 13.221 19.86854 0.3970071 -0.2061282 -0.2822208
Pb 12.93402 15.97897 23.35038 -0.1534955 1.077788 -0.1984201
Pb 16.57831 19.83572 29.37095 0.00996572 -0.05823879 0.9329387
Pb 16.65439 6.643836 16.41429 -0.01648736 -0.2071358 -0.1198905
Pb 16.36549 9.709238 19.95807 0.2562287 0.0169507 -0.68801
Pb 16.29366 13.2649 23.22098 0.2298121 -0.03222214 -0.4353575
Pb 16.16812 16.42027 26.41526 0.3824929 -0.00806985 -0.07924877
Pb 6.911527 22.93939 16.7939 -0.4885402 0.5451089 -0.8624865
Pb 6.933787 10.06234 3.569706 -1.120464 -0.3339255 0.00687342
Pb 6.489333 13.0161 6.769922 -0.2320992 -0.00123281 -0.2068096
Pb 6.535914 16.49526 10.03541 -0.09093678 0.210059 -0.2640814
Pb 6.596729 19.67148 13.41246 -0.1813438 0.08181419 -0.2409286
Pb 9.909928 23.04268 19.31018 -0.5330235 -0.2160213 0.4407783
Pb 9.813265 9.617903 6.872207 0.01354977 -0.05875763 -0.1652418
Pb 9.681687 12.86731 9.604928 0.4684262 0.4859728 0.3294712
Pb 9.821132 16.39274 12.54962 0.3499547 0.232121 0.2744169
Pb 9.606196 19.90902 16.34643 0.8319931 -0.2372111 -0.3758154
Pb 13.10882 22.56393 23.115 0.04255385 0.1873756 0.07486796
Pb 12.95355 10.07846 10.13681 0.3703084 -0.6076273 -0.2396743
Pb 13.3929 12.97569 12.96311 -0.1411369 0.1411923 0.9400536
Pb 13.4334 16.22395 16.78789 -0.30225 0.5105441 -0.7188851
Pb 12.89008 19.57085 19.70574 0.9311851 0.3497372 -0.1989423
Pb 16.79764 22.73783 26.41378 -0.6479418 0.4367604 0.03822487
Pb 16.67932 10.03861 12.92438 -0.6024433 -0.07707165 0.250377
Pb 16.30092 13.40356 16.77011 -0.09285845 -0.4065173 -0.4953002
Pb 16.28034 16.12843 19.54975 0.3081262 0.5461504 -0.06235484
Pb 16.69931 19.44316 23.31386 -0.4517973 0.5273838 -0.5119672
Pb 19.91809 6.716065 13.57773 -0.3533424 -0.2013644 -0.8860809
Pb 19.89564 10.00843 16.20402 -0.239732 0.1092162 0.6439021
Pb 19.76317 13.32108 19.56569 -0.1712438 -0.5656056 -0.1516865
Pb 19.59462 16.35775 22.77405 0.2700778 0.3035622 0.2856359
Pb 19.84904 19.63095 26.29421 0.1951238 -0.2461244 0.5872121
Pb 9.571995 9.700468 0.3848708 0.8906596 0.727308 -1.149175
Pb 26.2359 13.12534 19.72356 0.2268582 0.3789921 -0.8524506
Pb 26.24507 16.27019 22.5914 0.05501914 0.4971041 0.3086522
Pb 10.07145 19.81226 10.0142 -0.8699497 -0.1192601 -0.1901216
Pb 26.32337 23.07084 29.50086 0.1912968 -0.08461082 -0.4637387
Pb 13.04213 9.953457 3.199848 0.4623267 -0.6522452 -0.0296196
Pb 12.86159 12.96804 6.766284 0.5981463 -0.1103475 -0.2355098
Pb 13.34614 16.63837 9.957409 -0.2744465 -0.1765192 -0.4478578
Pb 12.87102 19.82515 12.98171 0.3390075 -0.2517865 0.6641899
Pb 13.646 22.72906 16.32428 -0.7421255 -0.09558983 -0.08075341
Pb 16.262 9.868616 6.615991 0.5448009 0.059417 -0.1015664
Pb 16.36829 13.32406 9.894063 0.6043394 -0.517366 -0.1524924
Pb 16.27757 16.24984 12.77048 0.2209523 0.6295655 0.1802631
Pb 16.73152 19.67521 16.49311 -0.4774279 0.1485712 -0.1560929
Pb 15.92748 22.48494 19.9432 0.3277289 1.008308 -0.09411129
Pb 19.6011 9.704029 10.03782 0.09529188 0.5254265 -0.3791396
Pb 19.8279 13.60658 12.89773 0.05338993 0.1449523 0.2822292
Pb 19.78198 16.36786 16.51158 -0.08829545 -0.06279366 -1.508719
Pb 19.64247 19.83892 19.72882 -0.03697426 0.07791756 -0.03400928
Pb 19.38801 22.97838 23.11856 0.5351261 0.1126801 -0.06736711
Pb 23.23696 26.00138 29.72891 -0.08154892 0.5637515 0.02583682
Pb 23.02252 13.24393 16.24623 0.4299183 -0.1829045 0.1232383
Pb 22.82171 16.3273 19.85574 0.5992455 0.1875291 -0.1003292
Pb 22.89791 19.46292 22.98001 0.3339924 0.2797606 0.3170958
Pb 22.84875 23.11734 26.27844 0.6180627 -0.3436949 0.1913698
Pb 13.14088 29.39004 16.49119 -0.249893 -0.06741782 -0.01103211
Pb 13.32959 16.53006 3.303629 -0.2221952 -0.8192255 0.09709085
Pb 13.13688 19.414 6.734577 0.02718296 0.2894448 -0.2831277
Pb 29.73395 22.91994 25.99642 -0.842877 0.48665 0.3861546
Pb 29.60253 26.11592 29.32843 0.1930864 0.1060653 0.420144
Pb 16.79609 29.6034 19.4685 -0.5510441 -0.4150977 0.345435
Pb 16.50844 16.26962 6.399214 -0.2160782 -0.03910878 -0.1559665
Pb 16.7501 19.99557 9.864367 -0.6657004 -0.5252234 0.02017377
Pb 16.74144 23.10559 13.28564 -0.4183906 -0.1728223 0.1104034
Pb 16.38257 26.35584 16.73801 -0.220792 0.0462526 -0.2358158
Pb 19.94042 29.66225 22.80522 -1.065279 -0.1652083 0.177256
Pb 19.88912 16.36599 9.512112 -0.1645539 -0.1740059 0.9837744
Pb 19.4363 20.19975 12.95274 -0.1279724 -1.834641 -0.02172276
Pb 19.97515 22.69414 16.43828 0.1305634 0.4269806 0.06789865
Pb 19.74432 26.16144 19.89866 -0.1742314 0.06684919 -0.2485394
Pb 23.02891 29.67653 26.19575 -0.109893 -0.1538691 0.2432389
Pb 22.83371 16.54629 13.11407 -0.3168652 -0.3876472 0.04253561
Pb 22.98614 19.60359 16.06416 0.386982 0.27689 0.4930528
Pb 23.0877 23.0556 19.93464 -0.03839307 -0.1185748 -0.3904556
Pb 22.59221 26.3437 23.02814 0.473112 -0.1023203 0.06363887
Pb 26.37748 29.56294 29.40406 -0.2522486 0.241543 0.2940527
Pb 26.19329 16.61048 16.23176 0.2540755 -0.2139622 0.2446564
Pb 25.90497 19.67781 19.96284 0.4844853 -0.1513241 -0.05144824
Pb 25.87921 23.09364 23.24783 0.3955803 -0.336112 -0.298943
Pb 26.14758 26.22983 26.30005 0.7435387 0.3336235 0.1674997
250
energy=-944.7615 config_type=nep2xyz pbc="T T T" Lattice="0.0 16.42598 16.42598 16.42598 0.0 16.42598 16.42598 16.42598 0.0" Properties=species:S:1:pos:R:3:force:R:3
Te 3.228683 3.036488 3.695815 0.1754132 1.239348 -0.543367
Te 3.092949 6.525393 6.561176 0.5888577 0.3044107 0.2080718
Te 3.179211 9.966263 9.842441 0.610849 -0.1057422 -0.05542158
Te 3.315657 13.06364 13.09499 -0.0236012 0.435508 -0.4037832
Te 3.356512 16.46027 16.54676 -0.3357438 -0.01203608 -0.1721504
Te 6.626432 3.146544 6.824861 0.0756467 0.2060903 -0.7105025
Te 6.501295 6.79656 9.830412 0.1903374 -0.4419228 0.1269495
Te 6.633311 9.938164 13.17828 -0.5714135 -0.1617243 0.1163207
Te 6.422239 13.28103 16.2645 0.1582917 -0.08115892 0.2673764
Te 6.584717 16.46472 19.55216 0.3724248 0.1409992 0.3593068
Te 9.809788 3.448856 9.960404 -0.02297269 -0.03285204 0.1037116
Te 9.906966 6.510184 13.33906 -0.3892136 0.1793074 -0.342328
Te 9.942296 10.00153 16.32413 -0.315756 -0.2436004 0.07219377
Te 9.80118 13.19393 19.49951 0.07819716 0.4379708 0.5355517
Te 9.958533 16.34551 23.03904 -0.04452637 0.4444432 0.06397631
Te 12.98536 3.440615 13.10392 0.230602 -0.3912337 0.03564481
Te 12.98716 6.643415 16.12754 0.191648 -0.3729853 0.4393988
Te 13.04241 9.83912 20.00322 0.3168246 -0.1653043 -0.4088171
Te 13.26763 13.18347 22.93527 -0.2661011 -0.0803078 0.1657842
Te 12.96299 16.41133 26.07553 0.1250536 0.7856897 0.2706183
Te 16.55643 3.398326 16.29459 -0.1870015 -0.0363454 0.2435971
Te 16.306 6.33761 19.61233 0.1702829 0.5245867 -0.03767987
Te 16.54758 9.657589 22.94551 -0.05678496 0.3591121 0.0969874
Te 16.3372 13.21756 26.38863 0.02487901 -0.0887056 -0.3259788
Te 16.33918 16.54754 29.71049 0.119244 0.2811052 -0.1283764
Te 6.498885 6.542796 3.180721 0.4070024 -0.024601 0.6319799
Te 6.672909 9.899909 6.672216 -0.04872646 -0.1888734 -0.2391259
Te 6.507223 13.064 9.814436 0.09533453 0.5373335 -0.2222895
Te 6.615935 16.43826 13.23248 -0.1849476 0.1815773 -0.3731557
Te 6.632699 19.82195 16.26674 0.1366411 0.178255 0.4764467
Te 9.891051 6.54382 6.698055 -0.2100636 -0.24653 -0.1238609
Te 9.685142 10.19477 9.817469 0.1941877 -0.8570586 0.480604
Te 9.892552 13.22267 13.1206 -0.1123665 -0.3823433 0.01639
Te 9.640444 16.35847 16.53824 0.7041392 0.5737544 -0.1532737
Te 10.06933 19.45715 19.78708 -0.1213901 1.079667 0.00040811
Te 13.12559 6.560296 9.608125 -0.03011449 -0.1130643 0.1181606
Te 13.11984 9.851028 13.07942 -0.1834047 0.4005023 -0.01170156
Te 12.88241 13.00148 16.48311 0.4569275 0.2717392 -0.08723053
Te 13.05529 16.40724 19.65949 0.2876627 -0.2124179 -0.05875936
Te 13.14447 19.79009 22.96781 0.01846125 -0.4237343 -0.3564613
Te 16.28303 6.652523 13.00926 0.2940387 0.2903334 0.2238946
Te 16.36309 9.893807 16.226 0.09681425 -0.1325894 0.1718501
Te 16.48696 13.07 19.68702 0.02987096 -0.00261945 -0.1801581
Te 16.43456 16.2278 23.12823 0.07959787 0.2694868 -0.3199072
Te 16.56338 19.6211 25.93917 -0.2529876 0.5390461 0.9787173
Te 19.85518 6.61286 16.62806 -0.5007144 -0.09210171 -0.4507713
Te 19.78116 9.693958 19.53249 0.03033903 0.3123653 0.3622694
Te 19.65601 13.09478 22.71745 0.1032507 -0.0683062 0.3459416
Te 19.73334 16.49077 26.13084 -0.0687445 0.00089285 0.3703881
Te 19.49207 19.61813 29.98415 0.7703335 0.00988708 -0.6287667
Te 10.08287 9.755891 3.451739 -0.8483014 0.00059529 0.4184783
Te 9.723307 13.19096 6.737127 0.2279148 -0.3786006 -0.4799778
Te 10.05564 16.39586 9.837617 -0.242768 0.09535497 0.07110993
Te 9.955972 19.72156 13.19862 -0.07332178 -0.1780748 0.4024815
Te 9.776403 23.06621 16.54174 0.4093849 -0.3117374 0.1928062
Te 13.04461 9.755504 6.486606 0.3156333 0.2815278 0.4821945
Te 13.25192 13.01798 9.977691 -0.1071929 0.1009092 -0.1533726
Te 13.12027 16.45001 13.263 0.08381255 -0.07701953 0.0278746
Te 13.30173 19.61844 16.47531 -0.5089787 0.3597632 -0.3414141
Te 13.54434 23.03799 19.60314 -1.026911 -0.2496397 -0.1294294
Te 16.44072 9.580694 9.693352 -0.01879465 0.8215142 -0.04053143
Te 16.4344 13.17661 12.95699 -0.1307075 -0.21867 0.4544529
Te 16.45895 16.32149 16.29447 -0.2287789 0.08622978 0.6613415
Te 16.65768 19.7689 19.61228 -0.3947087 -0.2940798 -0.02135422
Te 16.32951 23.2717 22.99479 0.4117963 -1.096781 -0.1581637
Te 19.75911 9.668559 13.04254 -0.04992706 0.127528 -0.05616441
Te 19.65095 13.21636 16.28725 -0.01390976 0.01606685 0.8349482
Te 19.61583 16.48845 19.61729 -0.05611177 -0.7253603 -0.2310923
Te 19.64329 19.57547 22.77684 0.1588909 0.4786888 0.6574211
Te 19.78292 22.86906 26.17248 -0.2817006 0.3875192 0.07983063
Te 22.93911 10.00162 16.2395 0.2463051 -0.2666108 0.3170288
Te 23.15684 13.06388 19.77437 -0.3534923 0.06252694 -0.05822424
Te 22.90509 16.43982 23.21366 0.3052035 0.131204 -0.3795485
Te 22.85771 19.73487 26.12015 0.7101199 -0.2793668 0.103553
Te 22.87247 22.93216 29.65935 0.2324535 0.02218313 -0.1756384
Te 13.07521 13.31305 3.323344 0.03813386 -0.3848576 0.01134603
Te 13.26168 16.4965 6.886665 -0.3235527 -0.2433453 -0.6789728
Te 13.15317 19.57392 9.932304 -0.03041172 0.1927689 0.04324599
Te 13.26637 22.85302 13.00205 -0.04494571 0.2205517 0.311411
Te 13.09549 26.30171 16.59699 -0.03376511 -0.05721608 -0.2178961
Te 16.19615 13.34792 6.593478 0.6874367 -0.4363412 -0.01964132
Te 16.54522 16.36868 9.958659 0.1322757 -0.01236854 -0.1057827
Te 16.468 19.66087 13.17366 -0.07186143 0.1826623 -0.7777525
Te 16.38689 22.8758 16.29279 -0.01990735 -0.04774828 0.3724067
Te 16.32052 26.29382 19.63568 0.5141253 -0.07391424 0.2288819
Te 19.78871 12.87317 10.11174 -0.2058917 0.3898314 -0.7169948
Te 19.63671 16.23898 12.95115 0.2556576 0.3386787 -0.06589052
Te 19.88667 19.508 16.22685 -0.5583862 0.3051613 0.446908
Te 19.70353 23.03979 19.47318 0.2619447 -0.00104708 0.1987941
Te 19.63186 26.41172 23.04583 -0.4430027 -0.38757 -0.5235557
Te 22.94228 13.2729 13.23684 0.1680909 -0.1950409 -0.1762747
Te 23.02777 16.43431 16.51973 -0.3998503 0.2359159 -0.09979962
Te 22.86108 19.55816 19.62596 0.5583731 0.1809909 -0.01179819
Te 22.77674 23.09272 23.04 0.3958902 -0.3753721 -0.1051577
Te 23.1748 26.40212 26.17877 -0.182433 -0.3079048 0.06330614
Te 26.38824 13.11341 16.2986 -0.3190069 0.115703 0.6463462
Te 26.26324 16.53166 19.69777 -0.1693707 -0.419692 0.08844052
Te 26.29206 19.95924 22.98507 -0.09230232 -0.5508197 0.1285726
Te 26.35949 22.69056 26.57538 -0.6556391 0.7048435 -0.4043936
Te 26.33825 26.44333 29.66936 0.2409047 -0.5632275 -0.05555735
Te 16.46599 16.3672 3.510874 -0.1222428 0.2116738 -0.4428234
Te 16.41712 19.66398 6.549165 -0.01914508 0.2594385 0.05473795
Te 16.42535 22.94171 9.832904 0.03574096 -0.04741213 0.03753153
Te 16.54416 26.62109 13.32724 0.05110415 -0.5192424 -0.5054796
Te 16.44716 29.46029 16.55751 -0.1521642 0.1990926 -0.2209572
Te 19.93211 16.38455 6.605367 -0.369449 0.00799176 -0.00739945
Te 19.555 19.81074 10.05559 0.3486688 -0.3173635 -0.5426612
Te 19.8792 22.95169 12.99225 -0.5097081 0.00941671 0.1595851
Te 19.61887 26.37456 16.31916 0.1791844 -0.1648866 0.457603
Te 19.67633 29.75725 19.58368 -0.1544256 -0.5922293 0.376839
Te 22.92005 16.4433 9.623589 0.1893695 0.1884754 0.4884945
Te 22.98283 19.5983 13.18391 -0.9071045 0.4861058 -0.03865226
Te 22.72951 23.33121 16.45303 0.4063158 -0.5528077 -0.7765194
Te 23.14133 26.26206 19.78993 -0.6773002 -0.01066073 -0.2500385
Te 23.23373 29.47373 23.08949 -0.5538983 0.3202111 -0.2922266
Te 26.16835 16.40122 13.22181 0.01112912 0.1762744 -0.2142411
Te 26.32723 19.92712 16.41181 -0.08746872 0.04017067 0.09319352
Te 26.14084 23.06337 19.925 0.1735005 -0.04857105 -0.3464513
Te 26.20142 26.63707 23.13612 -0.08502951 -0.796358 -0.07428824
Te 26.3718 29.68685 26.38731 -0.4714389 -0.2224077 -0.1076021
Te 29.34174 16.45666 16.39672 0.4714738 -0.3186025 -0.05004556
Te 29.47986 19.56536 19.72636 0.0657591 1.029709 0.06343259
Te 29.6038 22.97825 22.89077 -0.4257851 0.06544374 0.08632906
Te 29.75578 26.23396 26.45792 -0.3213601 -0.01812463 0.00941912
Te 29.79714 29.30655 29.49525 -0.3413127 0.1652919 0.19857
Pb 16.54962 0.3055331 16.56324 -0.1527728 -0.4872498 -0.02341627
Pb 0.08944785 3.191105 3.234815 -0.1030859 -0.2115255 0.1009067
Pb 32.78979 22.97166 22.97131 -0.166566 -0.1615156 0.1675243
Pb 0.228355 9.716153 9.828137 -0.8394002 0.09510362 -0.05630645
Pb 16.44122 13.50141 29.49273 0.1403482 -0.1291377 0.224714
Pb 3.528986 0.1444953 3.419199 -0.3637925 -0.8053916 -0.07350007
Pb 3.331456 3.475368 6.759646 -0.1988784 -0.5090648 0.06605273
Pb 19.65925 22.97719 9.814533 -0.2817603 0.2043389 -0.1779303
Pb 19.64555 26.42406 13.27162 0.3497885 -0.2419608 -0.2898184
Pb 3.244075 13.29275 16.19971 -0.2580094 -0.3573883 0.4170155
Pb 6.654002 16.27786 22.88237 0.06311348 -0.3305138 -0.2851665
Pb 22.7697 19.70031 9.81324 0.2278076 0.10454 0.6845813
Pb 22.88612 22.86296 13.1327 0.7303327 0.155167 -0.03357092
Pb 6.607538 10.01314 16.51879 -0.02430336 0.3200886 -0.05136031
Pb 22.77847 29.53287 19.52822 0.245694 0.09279287 0.04754349
Pb 26.11042 16.47823 9.929116 0.1886225 0.1057317 0.1609758
Pb 25.92271 19.67479 13.16646 1.120613 -0.100256 0.08960044
Pb 26.08474 23.22559 16.66206 0.1860709 0.1354241 -0.1021724
Pb 9.76035 10.24194 19.91041 0.2720392 -0.636875 -0.0422859
Pb 9.983668 13.20504 23.18228 0.02711982 0.00335029 -0.1379803
Pb 13.06765 0.2837112 13.01461 -0.03631799 0.1785574 0.04545434
Pb 29.57871 19.47529 16.39108 0.04331278 0.6950238 -0.2373667
Pb 13.1845 6.610274 19.46792 -0.3222499 -0.1910291 0.07981137
Pb 29.25687 26.24869 23.32136 0.3984481 -0.02821969 -0.1242591
Pb 12.98592 13.47895 26.39898 0.5151614 -0.8502927 -0.2757859
Pb 3.522025 19.5971 16.61803 -0.3726253 0.4703741 0.2109256
Pb 3.398312 6.533578 3.413082 -0.204254 -0.05640493 -0.2432186
Pb 3.534311 9.829631 6.558836 -0.3736002 0.110349 -0.2221151
Pb 19.40145 13.36419 26.10702 0.2161249 0.0079607 -0.02122736
Pb 3.340353 16.44197 13.2457 -0.1187152 0.06778543 -0.2654526
Pb 6.941823 3.421973 3.677185 -0.2533642 -0.3530683 -0.3301899
Pb 6.579081 6.302954 6.695232 0.09212729 0.419509 -0.1354937
Pb 6.305096 10.01964 10.01915 0.1517835 -0.3730254 -0.182867
Pb 6.513361 13.24373 12.86656 0.1833932 -0.1393304 0.5297765
Pb 6.574586 16.67353 16.33871 -0.09613659 -0.3396496 0.181074
Pb 10.00183 19.45368 23.39181 -0.1069631 0.2203284 -0.4083686
Pb 9.744773 6.774782 9.92057 0.03761523 -0.2226433 0.1669536
Pb 9.609243 9.654692 13.00482 0.6001091 0.1559311 0.4496197
Pb 9.602399 13.27507 16.41903 0.06874437 -0.4127568 -0.1945898
Pb 9.907923 16.49399 19.80942 -0.3908268 -0.8093302 -0.00508811
Pb 13.24945 19.70611 26.02502 -0.05005775 0.1231262 0.599757
Pb 13.03903 6.835224 12.76294 -0.00120162 -0.5574446 0.3078476
Pb 13.16886 9.679918 16.66922 -0.08976941 0.3343953 -0.08625508
Pb 13.23314 12.99254 19.67019 -0.2160747 0.0732647 9.748e-05
Pb 13.29889 16.37576 22.75324 -0.1998281 -0.02057115 0.4176785
Pb 16.50972 3.67903 13.08658 -0.6553081 -0.8017159 -0.1018982
Pb 16.28963 6.631186 16.32034 -0.02473475 0.2240696 0.1574641
Pb 16.28188 9.623241 19.76066 0.1868522 0.07189402 -0.1295213
Pb 16.35602 12.87399 22.82035 0.1732881 0.05064086 0.328891
Pb 16.24366 16.65333 26.31798 0.3138399 -0.6857748 0.2140092
Pb 22.96579 6.741088 16.53156 -0.00552515 0.09624713 -0.2487167
Pb 6.63339 9.785123 3.306194 -0.1715967 -0.0070447 0.03320821
Pb 22.94356 13.11646 22.99902 -0.0523429 -0.07559218 -0.0548334
Pb 6.764405 16.21738 9.982274 -0.2475548 0.2835845 -0.08852305
Pb 6.769078 19.86452 13.17491 -0.1910777 -0.4771842 -0.3634626
Pb 10.31146 22.71331 19.91223 -0.04534712 0.2849811 -0.2652768
Pb 9.890429 9.654439 6.892447 -0.1344428 0.1552225 -0.7098199
Pb 9.957862 13.2498 9.901208 0.02701795 0.3057029 0.130855
Pb 9.896345 16.25043 13.17183 0.09335789 0.2222369 -0.05053626
Pb 9.752351 19.63836 16.55994 0.2154571 0.06422274 0.03858674
Pb 13.27916 22.89006 22.77658 -0.3367482 0.3241503 0.07195472
Pb 12.97966 9.773439 9.823958 0.1250727 0.2310422 0.04758121
Pb 13.16268 13.20286 13.25399 0.02016515 -0.00414071 -0.05595753
Pb 13.1236 16.52431 16.44463 -0.06586024 -0.4997692 -0.3667275
Pb 13.57266 19.51668 19.50356 -0.06898456 0.4387888 0.4605314
Pb 16.41876 6.603392 9.818044 -0.02834089 -0.4798206 -0.0607457
Pb 16.22934 9.84849 12.77678 0.3894025 0.3003659 0.5429482
Pb 16.10465 13.09604 16.43553 -0.00960285 -0.1364881 -0.2109641
Pb 16.23441 16.28196 19.94882 0.3798816 0.09462766 -0.1757557
Pb 16.43568 19.80063 23.00191 0.08279116 -0.1488594 -0.7590454
Pb 19.71488 6.415378 13.43409 -0.1672239 0.3377186 -0.01078156
Pb 19.71468 10.10395 16.18045 -0.08351238 -0.5927633 0.1665037
Pb 19.99905 13.2393 19.53171 -0.3128048 -0.2898543 0.1096333
Pb 19.71884 16.37226 22.78407 -0.08679915 -0.1101687 0.3758239
Pb 19.87417 19.86507 26.24066 -0.3545938 -0.7161067 -0.03170131
Pb 9.862673 9.892476 0.4990723 -0.1971766 0.05493551 -0.8610248
Pb 26.30013 13.20687 19.54057 0.4528512 0.00626262 0.09755606
Pb 9.746684 16.14679 6.48568 0.04646335 0.5126538 0.2257165
Pb 9.913773 19.59757 10.13497 -0.05176034 -0.1640906 -0.4916881
Pb 9.748641 22.79861 13.33004 0.2806534 0.4243948 0.00677708
Pb 13.08532 9.853848 3.439309 0.4986717 0.2934826 -0.2171837
Pb 13.12557 13.23606 6.697255 -0.3010952 -0.1322781 -0.1957143
Pb 13.41072 16.35735 9.924314 -0.3659233 -0.09106867 0.3267758
Pb 13.37087 19.7679 13.17236 -0.2890452 -0.2693239 -0.1174494
Pb 13.06743 23.12315 16.24865 -0.08458315 -0.1588022 0.1635554
Pb 16.35609 26.21374 22.94212 -0.2533449 0.846096 -0.2043955
Pb 16.51266 13.20188 9.774777 -0.08622047 -0.1811957 0.04270879
Pb 16.56766 16.37772 13.24674 -0.5602249 -0.07991841 -0.3827661
Pb 16.35702 19.56745 16.11898 0.3918732 0.06349405 0.9490341
Pb 16.6271 22.96299 19.73872 0.09291084 0.1178212 -0.0963057
Pb 19.82559 26.03733 26.11156 0.05883004 0.2182806 0.5936428
Pb 19.72065 13.01737 13.30962 0.1366345 -0.3258827 -0.6694096
Pb 19.62483 16.36295 15.99109 0.2944138 0.01375485 0.5620672
Pb 19.79402 19.46873 19.74328 -0.2280939 0.6637368 -0.3893516
Pb 19.69121 23.01555 22.75997 0.01998381 -0.2147524 0.02728448
Pb 23.24283 25.99971 29.36157 -0.3337764 0.638014 0.1565853
Pb 22.96555 13.18774 16.3719 0.1476259 0.04046282 -0.1806978
Pb 22.83163 16.28796 19.82947 0.2630562 0.0841173 -0.187138
Pb 23.16756 19.71198 22.6956 -0.2907276 0.04877338 0.6264601
Pb 22.92751 22.81334 26.26683 0.2033853 0.2666003 -0.1381733
Pb 29.57716 29.67294 32.65663 0.2510969 -0.04263119 0.3183798
Pb 29.52779 16.62404 19.6114 0.223952 -0.8315595 0.1099463
Pb 13.02547 19.63032 6.712142 0.2406558 0.2273352 -0.2084546
Pb 29.30317 23.00135 26.20335 0.7858514 0.1364029 -0.06265681
Pb 13.54471 25.98274 13.49285 -0.6937923 0.3667039 -0.5315691
Pb 16.31344 13.18518 3.320295 0.01374171 -0.0535993 -0.2053269