This job can be monitored from: https://scruffy.c3se.chalmers.se/d/alvis-job/alvis-job?var-jobid=261635&from=1651041845000

***************************************************************
*                 Welcome to use GPUMD                        *
*    (Graphics Processing Units Molecular Dynamics)           *
*                     Version 3.3                             *
*              This is the nep executable                     *
* Author:                                                     *
*     Zheyong Fan <brucenju@gmail.com>                        *
***************************************************************


---------------------------------------------------------------
GPU information:
---------------------------------------------------------------

Device id:               0
Device name:             NVIDIA A100-SXM4-40GB
Compute capability:      8.0
Amount of global memory: 39.4086 GB
Number of SMs:           108

---------------------------------------------------------------
Run simulation for '.'.
---------------------------------------------------------------


---------------------------------------------------------------
Started reading nep.in.
---------------------------------------------------------------

Input or default parameters:
    (input)   use NEP version 3.
    (input)   number of atom types = 2.
        (default) type 0 (C with Z = 6) has force weight of 1.
        (default) type 1 (H with Z = 1) has force weight of 1.
    (default) will not add the ZBL potential.
    (input)   radial cutoff = 4 A.
    (input)   angular cutoff = 4 A.
    (input)   n_max_radial = 6.
    (input)   n_max_angular = 6.
    (default) basis_size_radial = 8.
    (default) basis_size_angular = 8.
    (input)   l_max_3body = 4.
    (input)   l_max_4body = 0.
    (input)   l_max_5body = 0.
    (input)   number of neurons = 50.
    (input)   lambda_1 = 0.02.
    (input)   lambda_2 = 0.02.
    (input)   lambda_e = 1.
    (input)   lambda_f = 1.
    (default) lambda_v = 0.1.
    (default) force_delta = 0.
    (input)   batch size = 100000000.
    (input)   population size = 50.
    (input)   maximum number of generations = 21500.
Some calculated parameters:
    number of radial descriptor components = 7.
    number of angualr descriptor components = 28.
    total number of  descriptor components = 35.
    NN architecture = 35-50-1.
    number of NN parameters to be optimized = 1851.
    number of descriptor parameters to be optimized = 504.
    total number of parameters to be optimized = 2355.

---------------------------------------------------------------
Finished reading nep.in.
---------------------------------------------------------------


---------------------------------------------------------------
Started reading train.in.
---------------------------------------------------------------

Number of configurations = 818.
Number of batches = 1
Hello, I changed the batch_size from 100000000 to 818.

Batch 0:
Number of configurations = 818.
Total number of atoms = 47040.
Number of atoms in the largest configuration = 76.
Number of configurations having virial = 0.
Radial descriptor with a cutoff of 4 A:
    Minimum number of neighbors for one atom = 7.
    Maximum number of neighbors for one atom = 35.
Angular descriptor with a cutoff of 4 A:
    Minimum number of neighbors for one atom = 7.
    Maximum number of neighbors for one atom = 35.

---------------------------------------------------------------
Started reading test.in.
---------------------------------------------------------------

Number of configurations = 351.
Total number of atoms = 20226.
Number of atoms in the largest configuration = 76.
Number of configurations having virial = 0.
Radial descriptor with a cutoff of 4 A:
    Minimum number of neighbors for one atom = 7.
    Maximum number of neighbors for one atom = 33.
Angular descriptor with a cutoff of 4 A:
    Minimum number of neighbors for one atom = 7.
    Maximum number of neighbors for one atom = 33.

---------------------------------------------------------------
Time used for initialization = 0.486992 s.
---------------------------------------------------------------


---------------------------------------------------------------
Started training.
---------------------------------------------------------------

Step    Total-Loss L1Reg-Loss L2Reg-Loss RMSE-E-Train RMSE-F-Train RMSE-V-Train RMSE-E-Test  RMSE-F-Test  RMSE-V-Test  
100     0.51418    0.00688    0.00830    0.02089      0.47810      0.00000      0.01911      0.46635      0.00000      
200     0.44027    0.00779    0.00953    0.02241      0.40054      0.00000      0.01866      0.39039      0.00000      
300     0.40275    0.00864    0.01071    0.01612      0.36728      0.00000      0.01516      0.35616      0.00000      
400     0.38578    0.00935    0.01161    0.02251      0.34231      0.00000      0.02209      0.33484      0.00000      
500     0.34884    0.01010    0.01261    0.02317      0.30295      0.00000      0.02227      0.29482      0.00000      
600     0.34019    0.01078    0.01343    0.02877      0.28721      0.00000      0.02806      0.28150      0.00000      
700     0.33995    0.01139    0.01413    0.00675      0.30769      0.00000      0.00658      0.30352      0.00000      
800     0.32373    0.01198    0.01487    0.03264      0.26423      0.00000      0.03223      0.25742      0.00000      
900     0.30542    0.01263    0.01570    0.01538      0.26172      0.00000      0.01503      0.25785      0.00000      
1000    0.31056    0.01305    0.01632    0.01004      0.27116      0.00000      0.00917      0.26496      0.00000      
1100    0.31669    0.01359    0.01691    0.02562      0.26057      0.00000      0.02259      0.25571      0.00000      
1200    0.26695    0.01383    0.01736    0.00644      0.22932      0.00000      0.00627      0.22501      0.00000      
1300    0.29184    0.01435    0.01795    0.00604      0.25351      0.00000      0.00585      0.24789      0.00000      
1400    0.27711    0.01486    0.01858    0.00990      0.23377      0.00000      0.00764      0.22423      0.00000      
1500    0.28813    0.01522    0.01902    0.00670      0.24719      0.00000      0.00564      0.24243      0.00000      
1600    0.27274    0.01566    0.01962    0.00894      0.22852      0.00000      0.00737      0.22364      0.00000      
1700    0.29319    0.01593    0.02006    0.01665      0.24055      0.00000      0.01523      0.23676      0.00000      
1800    0.26621    0.01639    0.02052    0.00630      0.22299      0.00000      0.00575      0.21410      0.00000      
1900    0.26796    0.01647    0.02063    0.00765      0.22321      0.00000      0.00718      0.21575      0.00000      
2000    0.26937    0.01707    0.02147    0.00479      0.22604      0.00000      0.00446      0.21877      0.00000      
2100    0.25700    0.01739    0.02191    0.01085      0.20685      0.00000      0.01034      0.19809      0.00000      
2200    0.26847    0.01753    0.02197    0.00772      0.22126      0.00000      0.00625      0.21383      0.00000      
2300    0.25864    0.01787    0.02250    0.00438      0.21389      0.00000      0.00440      0.20469      0.00000      
2400    0.26083    0.01824    0.02296    0.00553      0.21410      0.00000      0.00475      0.20848      0.00000      
2500    0.26329    0.01864    0.02355    0.00964      0.21147      0.00000      0.00791      0.20453      0.00000      
2600    0.25622    0.01880    0.02367    0.00487      0.20888      0.00000      0.00459      0.20112      0.00000      
2700    0.24484    0.01900    0.02401    0.00516      0.19668      0.00000      0.00456      0.19061      0.00000      
2800    0.24980    0.01922    0.02434    0.00471      0.20153      0.00000      0.00452      0.19482      0.00000      
2900    0.24882    0.01943    0.02468    0.00707      0.19764      0.00000      0.00706      0.19261      0.00000      
3000    0.24121    0.01972    0.02492    0.00530      0.19127      0.00000      0.00518      0.18649      0.00000      
3100    0.23804    0.02018    0.02565    0.00450      0.18770      0.00000      0.00422      0.18154      0.00000      
3200    0.23267    0.02039    0.02586    0.00876      0.17766      0.00000      0.00865      0.17063      0.00000      
3300    0.23804    0.02067    0.02630    0.00512      0.18596      0.00000      0.00402      0.17868      0.00000      
3400    0.25073    0.02091    0.02660    0.00724      0.19598      0.00000      0.00671      0.18916      0.00000      
3500    0.24123    0.02125    0.02707    0.00325      0.18967      0.00000      0.00279      0.18358      0.00000      
3600    0.23048    0.02159    0.02737    0.00555      0.17596      0.00000      0.00526      0.16932      0.00000      
3700    0.24141    0.02178    0.02769    0.00429      0.18765      0.00000      0.00409      0.18248      0.00000      
3800    0.23159    0.02196    0.02801    0.00389      0.17774      0.00000      0.00332      0.17210      0.00000      
3900    0.23443    0.02220    0.02824    0.00716      0.17683      0.00000      0.00692      0.17039      0.00000      
4000    0.23042    0.02248    0.02853    0.01012      0.16929      0.00000      0.00987      0.16299      0.00000      
4100    0.23616    0.02269    0.02893    0.00434      0.18020      0.00000      0.00381      0.17345      0.00000      
4200    0.22736    0.02299    0.02925    0.00684      0.16828      0.00000      0.00625      0.16168      0.00000      
4300    0.22473    0.02309    0.02947    0.00360      0.16857      0.00000      0.00331      0.16272      0.00000      
4400    0.22879    0.02335    0.02989    0.00413      0.17141      0.00000      0.00356      0.16576      0.00000      
4500    0.22707    0.02332    0.02987    0.00737      0.16651      0.00000      0.00707      0.15999      0.00000      
4600    0.23558    0.02369    0.03045    0.00979      0.17165      0.00000      0.00955      0.16705      0.00000      
4700    0.23159    0.02395    0.03085    0.00374      0.17306      0.00000      0.00354      0.16869      0.00000      
4800    0.22449    0.02428    0.03134    0.00594      0.16293      0.00000      0.00533      0.15725      0.00000      
4900    0.22280    0.02443    0.03149    0.00651      0.16037      0.00000      0.00577      0.15470      0.00000      
5000    0.21938    0.02477    0.03186    0.00501      0.15774      0.00000      0.00427      0.15172      0.00000      
5100    0.22612    0.02494    0.03231    0.00605      0.16282      0.00000      0.00453      0.15719      0.00000      
5200    0.22265    0.02516    0.03254    0.00369      0.16126      0.00000      0.00325      0.15695      0.00000      
5300    0.22282    0.02530    0.03285    0.00449      0.16019      0.00000      0.00382      0.15452      0.00000      
5400    0.21670    0.02535    0.03297    0.00443      0.15395      0.00000      0.00369      0.14821      0.00000      
5500    0.22013    0.02553    0.03334    0.00577      0.15549      0.00000      0.00540      0.15075      0.00000      
5600    0.21753    0.02591    0.03367    0.00538      0.15258      0.00000      0.00476      0.14783      0.00000      
5700    0.21666    0.02604    0.03382    0.00515      0.15165      0.00000      0.00480      0.14636      0.00000      
5800    0.21855    0.02628    0.03407    0.00451      0.15370      0.00000      0.00367      0.14649      0.00000      
5900    0.21332    0.02654    0.03458    0.00397      0.14822      0.00000      0.00354      0.14102      0.00000      
6000    0.21393    0.02657    0.03466    0.00652      0.14617      0.00000      0.00467      0.14026      0.00000      
6100    0.21431    0.02685    0.03519    0.00502      0.14725      0.00000      0.00446      0.14096      0.00000      
6200    0.21418    0.02689    0.03500    0.00364      0.14865      0.00000      0.00325      0.14403      0.00000      
6300    0.21781    0.02720    0.03545    0.00358      0.15158      0.00000      0.00337      0.14629      0.00000      
6400    0.21637    0.02738    0.03591    0.00469      0.14838      0.00000      0.00397      0.14127      0.00000      
6500    0.21558    0.02749    0.03587    0.00623      0.14598      0.00000      0.00533      0.13928      0.00000      
6600    0.21348    0.02768    0.03622    0.00354      0.14604      0.00000      0.00333      0.14000      0.00000      
6700    0.21605    0.02773    0.03627    0.00404      0.14801      0.00000      0.00363      0.14056      0.00000      
6800    0.21269    0.02784    0.03648    0.00581      0.14256      0.00000      0.00574      0.13720      0.00000      
6900    0.21433    0.02790    0.03663    0.00622      0.14357      0.00000      0.00556      0.13792      0.00000      
7000    0.21108    0.02814    0.03690    0.00331      0.14272      0.00000      0.00278      0.13518      0.00000      
7100    0.20932    0.02818    0.03706    0.00351      0.14056      0.00000      0.00305      0.13528      0.00000      
7200    0.21263    0.02835    0.03733    0.00450      0.14246      0.00000      0.00401      0.13654      0.00000      
7300    0.20947    0.02852    0.03737    0.00341      0.14016      0.00000      0.00284      0.13430      0.00000      
7400    0.20724    0.02871    0.03777    0.00339      0.13737      0.00000      0.00324      0.13154      0.00000      
7500    0.21136    0.02888    0.03807    0.00314      0.14128      0.00000      0.00292      0.13537      0.00000      
7600    0.20943    0.02893    0.03838    0.00330      0.13882      0.00000      0.00286      0.13408      0.00000      
7700    0.21062    0.02899    0.03842    0.00308      0.14013      0.00000      0.00267      0.13524      0.00000      
7800    0.20784    0.02931    0.03873    0.00305      0.13674      0.00000      0.00284      0.13185      0.00000      
7900    0.20800    0.02940    0.03889    0.00366      0.13605      0.00000      0.00320      0.13029      0.00000      
8000    0.20800    0.02968    0.03922    0.00338      0.13572      0.00000      0.00311      0.13015      0.00000      
8100    0.20846    0.02978    0.03950    0.00370      0.13549      0.00000      0.00335      0.13008      0.00000      
8200    0.20962    0.02977    0.03943    0.00313      0.13728      0.00000      0.00294      0.13109      0.00000      
8300    0.20680    0.02993    0.03965    0.00353      0.13369      0.00000      0.00316      0.12694      0.00000      
8400    0.20464    0.02976    0.03943    0.00382      0.13163      0.00000      0.00367      0.12590      0.00000      
8500    0.20373    0.02975    0.03945    0.00414      0.13038      0.00000      0.00349      0.12401      0.00000      
8600    0.20218    0.02951    0.03914    0.00302      0.13050      0.00000      0.00280      0.12494      0.00000      
8700    0.20081    0.02964    0.03953    0.00334      0.12831      0.00000      0.00314      0.12242      0.00000      
8800    0.20356    0.02979    0.03972    0.00401      0.13004      0.00000      0.00378      0.12425      0.00000      
8900    0.20218    0.02996    0.04006    0.00349      0.12867      0.00000      0.00333      0.12344      0.00000      
9000    0.20167    0.03005    0.04010    0.00346      0.12806      0.00000      0.00331      0.12240      0.00000      
9100    0.20190    0.03003    0.04017    0.00422      0.12748      0.00000      0.00422      0.12304      0.00000      
9200    0.20012    0.03025    0.04045    0.00455      0.12487      0.00000      0.00424      0.11981      0.00000      
9300    0.20002    0.03029    0.04061    0.00384      0.12528      0.00000      0.00355      0.11967      0.00000      
9400    0.20271    0.03048    0.04076    0.00325      0.12821      0.00000      0.00294      0.12279      0.00000      
9500    0.20145    0.03057    0.04083    0.00371      0.12634      0.00000      0.00310      0.12148      0.00000      
9600    0.19945    0.03058    0.04092    0.00294      0.12501      0.00000      0.00279      0.11912      0.00000      
9700    0.19983    0.03080    0.04134    0.00313      0.12456      0.00000      0.00301      0.11917      0.00000      
9800    0.19676    0.03093    0.04137    0.00331      0.12114      0.00000      0.00301      0.11564      0.00000      
9900    0.20126    0.03111    0.04161    0.00467      0.12387      0.00000      0.00459      0.11853      0.00000      
10000   0.19896    0.03113    0.04160    0.00318      0.12306      0.00000      0.00306      0.11817      0.00000      
10100   0.19859    0.03105    0.04152    0.00345      0.12257      0.00000      0.00334      0.11765      0.00000      
10200   0.19923    0.03110    0.04141    0.00397      0.12275      0.00000      0.00327      0.11747      0.00000      
10300   0.19610    0.03104    0.04138    0.00309      0.12059      0.00000      0.00296      0.11605      0.00000      
10400   0.19683    0.03114    0.04144    0.00396      0.12029      0.00000      0.00376      0.11574      0.00000      
10500   0.19605    0.03116    0.04133    0.00341      0.12015      0.00000      0.00318      0.11478      0.00000      
10600   0.19372    0.03127    0.04144    0.00329      0.11772      0.00000      0.00298      0.11267      0.00000      
10700   0.19613    0.03134    0.04137    0.00322      0.12020      0.00000      0.00304      0.11563      0.00000      
10800   0.19441    0.03128    0.04127    0.00358      0.11828      0.00000      0.00330      0.11329      0.00000      
10900   0.19275    0.03133    0.04139    0.00377      0.11626      0.00000      0.00360      0.11137      0.00000      
11000   0.19407    0.03134    0.04123    0.00318      0.11833      0.00000      0.00306      0.11458      0.00000      
11100   0.19410    0.03122    0.04113    0.00320      0.11854      0.00000      0.00309      0.11399      0.00000      
11200   0.19220    0.03127    0.04120    0.00313      0.11660      0.00000      0.00298      0.11232      0.00000      
11300   0.19188    0.03120    0.04109    0.00414      0.11544      0.00000      0.00388      0.11057      0.00000      
11400   0.19231    0.03130    0.04125    0.00327      0.11649      0.00000      0.00296      0.11196      0.00000      
11500   0.19259    0.03149    0.04146    0.00324      0.11640      0.00000      0.00308      0.11160      0.00000      
11600   0.19217    0.03143    0.04142    0.00303      0.11629      0.00000      0.00306      0.11125      0.00000      
11700   0.19121    0.03128    0.04107    0.00351      0.11535      0.00000      0.00340      0.11042      0.00000      
11800   0.19142    0.03125    0.04109    0.00351      0.11557      0.00000      0.00339      0.11106      0.00000      
11900   0.19012    0.03127    0.04109    0.00318      0.11458      0.00000      0.00305      0.11044      0.00000      
12000   0.18909    0.03121    0.04102    0.00327      0.11359      0.00000      0.00310      0.10933      0.00000      
12100   0.18922    0.03135    0.04110    0.00357      0.11319      0.00000      0.00342      0.10856      0.00000      
12200   0.18916    0.03140    0.04105    0.00372      0.11298      0.00000      0.00353      0.10841      0.00000      
12300   0.18976    0.03144    0.04105    0.00347      0.11380      0.00000      0.00318      0.10950      0.00000      
12400   0.18847    0.03127    0.04087    0.00324      0.11308      0.00000      0.00311      0.10840      0.00000      
12500   0.18931    0.03139    0.04102    0.00304      0.11386      0.00000      0.00280      0.10959      0.00000      
12600   0.18741    0.03118    0.04070    0.00364      0.11189      0.00000      0.00329      0.10762      0.00000      
12700   0.18716    0.03122    0.04082    0.00307      0.11205      0.00000      0.00296      0.10776      0.00000      
12800   0.18674    0.03127    0.04090    0.00325      0.11132      0.00000      0.00306      0.10678      0.00000      
12900   0.18588    0.03137    0.04109    0.00315      0.11028      0.00000      0.00306      0.10574      0.00000      
13000   0.18575    0.03122    0.04078    0.00328      0.11048      0.00000      0.00324      0.10618      0.00000      
13100   0.18592    0.03128    0.04074    0.00311      0.11080      0.00000      0.00293      0.10655      0.00000      
13200   0.18669    0.03132    0.04093    0.00317      0.11127      0.00000      0.00310      0.10721      0.00000      
13300   0.18610    0.03141    0.04101    0.00301      0.11067      0.00000      0.00290      0.10620      0.00000      
13400   0.18484    0.03135    0.04091    0.00312      0.10945      0.00000      0.00299      0.10565      0.00000      
13500   0.18547    0.03129    0.04089    0.00331      0.10998      0.00000      0.00313      0.10555      0.00000      
13600   0.18483    0.03108    0.04071    0.00329      0.10975      0.00000      0.00283      0.10561      0.00000      
13700   0.18392    0.03122    0.04082    0.00330      0.10859      0.00000      0.00321      0.10429      0.00000      
13800   0.18424    0.03115    0.04073    0.00291      0.10946      0.00000      0.00277      0.10520      0.00000      
13900   0.18338    0.03103    0.04063    0.00301      0.10871      0.00000      0.00274      0.10440      0.00000      
14000   0.18362    0.03091    0.04062    0.00317      0.10892      0.00000      0.00310      0.10470      0.00000      
14100   0.18320    0.03079    0.04049    0.00317      0.10875      0.00000      0.00308      0.10481      0.00000      
14200   0.18306    0.03089    0.04067    0.00306      0.10844      0.00000      0.00289      0.10425      0.00000      
14300   0.18180    0.03090    0.04057    0.00305      0.10728      0.00000      0.00285      0.10314      0.00000      
14400   0.18215    0.03076    0.04041    0.00318      0.10780      0.00000      0.00303      0.10405      0.00000      
14500   0.18113    0.03077    0.04042    0.00315      0.10679      0.00000      0.00306      0.10260      0.00000      
14600   0.18124    0.03075    0.04039    0.00308      0.10702      0.00000      0.00296      0.10312      0.00000      
14700   0.18089    0.03069    0.04028    0.00324      0.10668      0.00000      0.00295      0.10248      0.00000      
14800   0.18112    0.03073    0.04032    0.00308      0.10700      0.00000      0.00286      0.10323      0.00000      
14900   0.18050    0.03064    0.04021    0.00320      0.10645      0.00000      0.00300      0.10236      0.00000      
15000   0.18029    0.03063    0.04023    0.00333      0.10610      0.00000      0.00313      0.10207      0.00000      
15100   0.18052    0.03076    0.04035    0.00312      0.10629      0.00000      0.00280      0.10172      0.00000      
15200   0.18013    0.03076    0.04025    0.00319      0.10592      0.00000      0.00302      0.10141      0.00000      
15300   0.18065    0.03073    0.04024    0.00322      0.10646      0.00000      0.00293      0.10224      0.00000      
15400   0.17979    0.03058    0.04013    0.00326      0.10582      0.00000      0.00312      0.10135      0.00000      
15500   0.17894    0.03059    0.04007    0.00321      0.10506      0.00000      0.00296      0.10020      0.00000      
15600   0.17829    0.03038    0.03986    0.00317      0.10488      0.00000      0.00297      0.10031      0.00000      
15700   0.17845    0.03028    0.03976    0.00317      0.10524      0.00000      0.00295      0.10096      0.00000      
15800   0.17757    0.03027    0.03972    0.00370      0.10388      0.00000      0.00344      0.09959      0.00000      
15900   0.17672    0.03032    0.03964    0.00308      0.10367      0.00000      0.00294      0.09926      0.00000      
16000   0.17611    0.03013    0.03932    0.00335      0.10331      0.00000      0.00320      0.09908      0.00000      
16100   0.17551    0.02993    0.03910    0.00331      0.10317      0.00000      0.00323      0.09870      0.00000      
16200   0.17529    0.02986    0.03900    0.00314      0.10329      0.00000      0.00301      0.09883      0.00000      
16300   0.17557    0.02967    0.03885    0.00368      0.10338      0.00000      0.00359      0.09914      0.00000      
16400   0.17495    0.02969    0.03889    0.00312      0.10324      0.00000      0.00294      0.09912      0.00000      
16500   0.17423    0.02963    0.03880    0.00324      0.10257      0.00000      0.00317      0.09808      0.00000      
16600   0.17382    0.02972    0.03885    0.00294      0.10231      0.00000      0.00282      0.09799      0.00000      
16700   0.17304    0.02957    0.03876    0.00348      0.10124      0.00000      0.00336      0.09663      0.00000      
16800   0.17260    0.02929    0.03836    0.00296      0.10198      0.00000      0.00284      0.09774      0.00000      
16900   0.17210    0.02903    0.03824    0.00315      0.10168      0.00000      0.00302      0.09778      0.00000      
17000   0.17168    0.02898    0.03814    0.00297      0.10159      0.00000      0.00268      0.09782      0.00000      
17100   0.17227    0.02907    0.03827    0.00338      0.10155      0.00000      0.00329      0.09778      0.00000      
17200   0.17075    0.02900    0.03810    0.00289      0.10077      0.00000      0.00277      0.09695      0.00000      
17300   0.17187    0.02895    0.03804    0.00304      0.10184      0.00000      0.00292      0.09842      0.00000      
17400   0.17093    0.02888    0.03791    0.00289      0.10125      0.00000      0.00272      0.09764      0.00000      
17500   0.17082    0.02875    0.03775    0.00313      0.10118      0.00000      0.00294      0.09755      0.00000      
17600   0.17053    0.02887    0.03786    0.00300      0.10081      0.00000      0.00282      0.09719      0.00000      
17700   0.17069    0.02875    0.03770    0.00297      0.10127      0.00000      0.00287      0.09734      0.00000      
17800   0.17056    0.02866    0.03763    0.00307      0.10119      0.00000      0.00293      0.09734      0.00000      
17900   0.16937    0.02853    0.03759    0.00303      0.10023      0.00000      0.00289      0.09613      0.00000      
18000   0.16973    0.02848    0.03760    0.00302      0.10063      0.00000      0.00278      0.09687      0.00000      
18100   0.16833    0.02831    0.03732    0.00306      0.09964      0.00000      0.00295      0.09564      0.00000      
18200   0.16853    0.02824    0.03715    0.00309      0.10004      0.00000      0.00296      0.09612      0.00000      
18300   0.16766    0.02821    0.03709    0.00281      0.09955      0.00000      0.00269      0.09570      0.00000      
18400   0.16774    0.02804    0.03694    0.00299      0.09976      0.00000      0.00280      0.09600      0.00000      
18500   0.16718    0.02797    0.03686    0.00289      0.09946      0.00000      0.00258      0.09567      0.00000      
18600   0.16698    0.02792    0.03673    0.00284      0.09949      0.00000      0.00261      0.09561      0.00000      
18700   0.16657    0.02781    0.03657    0.00300      0.09919      0.00000      0.00286      0.09542      0.00000      
18800   0.16592    0.02740    0.03635    0.00272      0.09946      0.00000      0.00253      0.09586      0.00000      
18900   0.16579    0.02739    0.03625    0.00315      0.09900      0.00000      0.00299      0.09517      0.00000      
19000   0.16478    0.02726    0.03607    0.00276      0.09869      0.00000      0.00254      0.09478      0.00000      
19100   0.16454    0.02717    0.03596    0.00280      0.09861      0.00000      0.00266      0.09443      0.00000      
19200   0.16390    0.02703    0.03577    0.00285      0.09825      0.00000      0.00268      0.09421      0.00000      
19300   0.16395    0.02695    0.03563    0.00276      0.09862      0.00000      0.00260      0.09469      0.00000      
19400   0.16411    0.02707    0.03570    0.00291      0.09844      0.00000      0.00274      0.09437      0.00000      
19500   0.16409    0.02703    0.03568    0.00290      0.09848      0.00000      0.00266      0.09456      0.00000      
19600   0.16417    0.02713    0.03576    0.00283      0.09844      0.00000      0.00262      0.09461      0.00000      
19700   0.16412    0.02699    0.03573    0.00283      0.09856      0.00000      0.00270      0.09453      0.00000      
19800   0.16355    0.02690    0.03564    0.00271      0.09830      0.00000      0.00257      0.09450      0.00000      
19900   0.16355    0.02671    0.03555    0.00273      0.09855      0.00000      0.00264      0.09465      0.00000      
20000   0.16304    0.02672    0.03543    0.00276      0.09813      0.00000      0.00265      0.09445      0.00000      
20100   0.16254    0.02662    0.03535    0.00279      0.09778      0.00000      0.00263      0.09393      0.00000      
20200   0.16193    0.02631    0.03496    0.00274      0.09792      0.00000      0.00256      0.09389      0.00000      
20300   0.16145    0.02627    0.03487    0.00281      0.09750      0.00000      0.00259      0.09381      0.00000      
20400   0.16124    0.02602    0.03465    0.00283      0.09773      0.00000      0.00267      0.09385      0.00000      
20500   0.16087    0.02587    0.03450    0.00277      0.09772      0.00000      0.00256      0.09392      0.00000      
20600   0.16045    0.02585    0.03443    0.00278      0.09739      0.00000      0.00261      0.09355      0.00000      
20700   0.16034    0.02589    0.03434    0.00270      0.09741      0.00000      0.00253      0.09375      0.00000      
20800   0.15960    0.02559    0.03408    0.00286      0.09707      0.00000      0.00272      0.09304      0.00000      
20900   0.15877    0.02539    0.03389    0.00275      0.09675      0.00000      0.00251      0.09295      0.00000      
21000   0.15871    0.02530    0.03385    0.00288      0.09668      0.00000      0.00267      0.09285      0.00000      
21100   0.15861    0.02530    0.03379    0.00285      0.09667      0.00000      0.00271      0.09282      0.00000      
21200   0.15848    0.02501    0.03349    0.00277      0.09721      0.00000      0.00258      0.09355      0.00000      
21300   0.15818    0.02511    0.03352    0.00286      0.09670      0.00000      0.00252      0.09286      0.00000      
21400   0.15758    0.02497    0.03337    0.00283      0.09640      0.00000      0.00267      0.09261      0.00000      
21500   0.15721    0.02490    0.03325    0.00285      0.09621      0.00000      0.00261      0.09240      0.00000      

---------------------------------------------------------------
Time used for training = 2323.289551 s.
---------------------------------------------------------------


---------------------------------------------------------------
Finished running nep.
---------------------------------------------------------------

