2
Config_type=Cu_single-point Weight=1.0 Lattice="3.155734316 0.599675484 -0.701986499 -0.758236990 2.779860728 -0.162320058 0.086837300 0.648871474 3.603476546" Energy=-6.4893825200 Virial="-3.59066 0.02951 0.58043 0.02951 -4.10300 -0.13244 0.58043 -0.13244 -3.58745" pbc="T T T" Properties=species:S:1:pos:R:3:forces:R:3
Cu	      0.00000      0.00000      0.00000        -0.000000     -0.000000     -0.000000
Cu	      1.24217      2.01420      1.36959         0.000000      0.000000      0.000000
8
Config_type=diamond_relax Weight=1.0 Lattice="3.555999994 0.000000000 0.000000000 0.000000000 3.555999994 0.000000000 0.000000000 0.000000000 3.555999994" Energy=-74.5190353700 Virial="0.15207 -0.00000 0.00000 -0.00000 0.15207 -0.00000 0.00000 -0.00000 0.15207" pbc="T T T" Properties=species:S:1:pos:R:3:forces:R:3
C	      0.00000      0.00000      0.00000        -0.000000     -0.000000     -0.000000
C	      0.00000      1.77800      1.77800        -0.000000      0.000000     -0.000000
C	      1.77800      1.77800      0.00000        -0.000000      0.000000     -0.000000
C	      1.77800      0.00000      1.77800        -0.000000     -0.000000     -0.000000
C	      2.66700      0.88900      2.66700         0.000000     -0.000000      0.000000
C	      0.88900      0.88900      0.88900         0.000000      0.000000      0.000000
C	      0.88900      2.66700      2.66700         0.000000     -0.000000      0.000000
C	      2.66700      2.66700      0.88900         0.000000     -0.000000      0.000000
8
Config_type=diamond_relax Weight=1.0 Lattice="3.559261050 0.000000000 0.000000000 -0.000000000 3.559261050 0.000000000 0.000000000 -0.000000000 3.559261050" Energy=-74.5191165100 Virial="-0.19600 0.00000 -0.00000 0.00000 -0.19600 0.00000 -0.00000 0.00000 -0.19600" pbc="T T T" Properties=species:S:1:pos:R:3:forces:R:3
C	     -0.00000     -0.00000     -0.00000        -0.000000      0.000000     -0.000000
C	     -0.00000      1.77963      1.77963        -0.000000     -0.000000     -0.000000
C	      1.77963      1.77963      0.00000        -0.000000      0.000000      0.000000
C	      1.77963     -0.00000      1.77963         0.000000      0.000000     -0.000000
C	      2.66945      0.88982      2.66945         0.000000      0.000000      0.000000
C	      0.88982      0.88982      0.88982         0.000000     -0.000000     -0.000000
C	      0.88982      2.66945      2.66945         0.000000     -0.000000      0.000000
C	      2.66945      2.66945      0.88982         0.000000     -0.000000      0.000000
8
Config_type=diamond_relax Weight=1.0 Lattice="3.558090375 0.000000000 0.000000000 -0.000000000 3.558090375 0.000000000 0.000000000 -0.000000000 3.558090375" Energy=-74.5191932500 Virial="-0.07073 0.00000 -0.00000 0.00000 -0.07073 0.00000 -0.00000 0.00000 -0.07073" pbc="T T T" Properties=species:S:1:pos:R:3:forces:R:3
C	     -0.00000     -0.00000     -0.00000         0.000000      0.000000      0.000000
C	     -0.00000      1.77905      1.77905         0.000000      0.000000      0.000000
C	      1.77905      1.77905      0.00000        -0.000000      0.000000      0.000000
C	      1.77905     -0.00000      1.77905         0.000000      0.000000      0.000000
C	      2.66857      0.88952      2.66857        -0.000000     -0.000000     -0.000000
C	      0.88952      0.88952      0.88952         0.000000     -0.000000     -0.000000
C	      0.88952      2.66857      2.66857        -0.000000     -0.000000     -0.000000
C	      2.66857      2.66857      0.88952        -0.000000     -0.000000     -0.000000
391
Config_type=WH-AIMD Weight=1.0 Lattice="15.810234548 0.000000000 0.000000000 0.000000000 15.810234548 0.000000000 0.000000000 0.000000000 15.810234548" Energy=-3283.9693132400 Virial="429.37855 -6.82503 -13.42875 -6.82503 409.12057 -12.41549 -13.42875 -12.41549 433.67245" pbc="T T T" Properties=species:S:1:pos:R:3:forces:R:3
W	      1.61852      1.55752      1.58416        -0.336839     -0.137489     -0.154907
W	      3.26126      3.21200      3.19891         0.301644      0.094929      0.246416
W	      3.17249      3.18255      0.00017        -0.301630     -0.301546      0.091846
W	      4.75218      1.61105      1.57440         0.091164     -0.199296      0.049876
W	      6.37601      3.20996      3.14353        -0.563422      0.010826      0.141905
W	      6.30034     15.79350      3.18278        -0.392563      0.380986     -0.162544
W	      7.92188      1.70369      1.53158        -0.047645     -0.193690      0.113762
W	     11.09410      1.64668      1.56722        -0.048061     -0.232773     -0.098201
W	      9.50585      3.20514      3.10777         0.211733      0.174222      0.284737
W	      9.48607      0.12010      3.01981         0.227125      0.106411     -0.076903
W	      9.44672      0.02539      0.00289         0.147097     -0.048639      0.049757
W	      9.50938      3.18615     15.75810         0.088712     -0.204845      0.211904
W	     15.80490      3.11230      0.05262         0.107098     -0.033033     -0.274704
W	     15.74250      3.17842      3.18618         0.188037     -0.066131      0.203658
W	     14.22790      1.58956      1.61160         0.057055      0.144268     -0.229159
W	     12.65960      3.20542      3.14217        -0.161174     -0.078782      0.330849
W	     12.71780      0.02817      0.02828        -0.164774     -0.317070     -0.264705
W	     12.64860      0.04774      3.15266         0.068774     -0.179629     -0.169072
W	     12.67580      3.18097     15.80440         0.144911     -0.327602     -0.004187
W	      1.58600      4.80809      1.57096         0.130316      0.202607      0.073423
W	      3.20082      6.33344      3.18792        -0.676094     -0.279821     -0.778299
W	      3.15192      6.32428      0.01097        -0.397186     -0.243283     -0.148378
W	     15.80130      6.34245      3.14512         0.144927     -0.298754      0.130220
W	     15.79190      6.39174      0.04134         0.329137     -0.378879     -0.164024
W	      4.75595      4.74425      1.55149        -0.049689     -0.092833     -0.077140
W	      6.35921      6.34254      3.09682         0.218340     -0.203344     -0.190203
W	      7.92175      4.73900      1.47657        -0.000193      0.511194     -0.447180
W	     11.08270      4.73735      1.52676        -0.078018      0.391370      0.352746
W	      9.45215      6.37145      3.14368        -0.481640     -0.087602      1.178909
W	     11.07330      7.89768      1.45764        -0.285218     -0.057279      0.550419
W	     14.20790      4.76197      1.59754         0.338680      0.172925     -0.199667
W	     12.65620      6.31836      3.17463        -0.214450      0.231923     -0.366910
W	     12.67120      6.32030     15.80130        -0.149775     -0.111650     -0.115107
W	      1.58044      7.90637      1.60700        -0.004633      0.041857     -0.329098
W	      1.58089     11.04200      1.58442         0.140334     -0.043053     -0.046524
W	      3.14357      9.47026      3.14808         0.696419      0.053605      0.717074
W	      3.14102      9.45175      0.01216        -0.164863      0.547681     -0.130130
W	      0.00067      9.50948      3.12128        -0.036240     -0.296497      0.294511
W	      4.70353      7.88280      1.48466         0.873060      0.309162      0.102346
W	      7.90765      7.84249      1.44862         0.142184      1.015394     -0.076608
W	      4.69211     11.06230      1.53821         0.643186     -0.313554      0.781678
W	      6.35087      9.40940      3.12546        -0.546803      1.138451      1.007340
W	      7.88206     11.03760      1.46547         0.073484     -0.624090      0.499599
W	     11.08280     11.02340      1.54534        -0.289218     -0.481125      0.219691
W	      9.41049      9.41732      3.14554        -0.058720     -0.166658      1.424835
W	      9.48553      9.49050     15.78320         0.362919      0.235357      0.229719
W	     14.22440      7.90323      1.57177        -0.020305      0.123778      0.376874
W	     14.22850     11.04790      1.57473        -0.030130     -0.051782      0.150444
W	     12.65590      9.47251      3.18065        -0.128385     -0.545410     -0.222307
W	     12.65760      9.48615      0.05044        -0.382058      0.144801      0.207141
W	     15.80530      9.46967      0.02407         0.102266      0.254994     -0.135447
W	      3.15622     15.80946      3.14862        -0.004978      0.135615     -0.099007
W	      3.15118      0.01574      0.02474         0.165221      0.093065     -0.288398
W	      1.60418     14.23580      1.58541         0.012580     -0.062932      0.233632
W	      3.16458     12.62840      3.15725         0.320475     -0.129109      0.324332
W	      0.02973     12.58520      0.01736        -0.047346      0.148706     -0.262186
W	      0.07046     12.67480      3.11584        -0.166295     -0.211711     -0.095943
W	      3.13084     12.64250      0.02089        -0.184580      0.267555      0.025953
W	      4.71751     14.21930      1.58597         0.286902      0.001940     -0.019526
W	      6.30651     12.63390      3.14276         0.210994     -0.828512      0.279989
W	      7.85340     14.14910      1.57229         0.450411     -0.185510      0.109758
W	      9.50461     12.40980      3.23988        -0.566022     -0.397297      1.048931
W	     11.13810     14.24480      1.57278        -0.124319      0.090866      0.160134
W	     15.80600      0.02314      3.16978         0.063393     -0.212223     -0.241905
W	     12.59240     12.59590      3.15341        -0.339051      0.091302      0.122628
W	     14.20250     14.22630      1.64444        -0.002956      0.163513      0.269931
W	      1.53565      1.58595      4.71590         0.188845      0.187005      0.419663
W	      3.17624      3.27679      6.35145         0.292962      0.048846      0.177059
W	      1.62811      1.58635      7.83224         0.034296      0.405671      0.192590
W	      0.00624      0.01037      6.31952         0.226439      0.281446     -0.291540
W	      0.00372      3.18649      6.32159         0.314308     -0.351292     -0.156079
W	      4.82490      1.57020      4.71089         0.045276      0.402340      0.282140
W	      6.38491      3.23345      6.40264        -0.451183      0.722992     -0.511898
W	      6.23200      0.01372      6.33005         0.349397     -0.003331      0.047519
W	      7.91198      1.57856      4.68756        -0.006920     -0.025603      0.603327
W	     11.11320      1.69516      4.73093        -0.400427     -0.105802      0.171723
W	      9.42201      3.16154      6.33423         0.217375     -0.331576     -0.624950
W	      9.59047      0.00360      6.38233        -0.286426     -0.397987      0.219172
W	     11.02610      1.66966      7.83204        -0.315697     -0.687848      0.194318
W	     14.23050      1.61231      4.75930         0.127416      0.066412     -0.008124
W	     12.67940      3.17009      6.32232         0.403026      0.084308      0.142723
W	     14.30040      1.61265      7.90793        -0.291556      0.354063     -0.237807
W	      1.56598      4.78832      4.75692        -0.196409     -0.273975     -0.317563
W	      3.15670      6.40237      6.38518        -0.103615     -0.000449     -0.459454
W	      4.71528      4.77254      4.73609         0.113085     -0.634751     -0.182607
W	     11.12390      4.69584      4.84547        -0.543674      0.848516     -0.111024
W	      0.00779      6.31359      6.28190         0.346455      0.168154      0.321959
W	     14.22770      4.77034      4.76614        -0.012609      0.030926     -0.184595
W	     12.70240      6.34713      6.32281         0.964018      0.047953     -0.739327
W	     14.28860      7.91495      4.76556         0.109937     -0.171309     -0.195572
W	     14.30090      4.78117      7.90619        -0.205322     -0.090339     -0.336596
W	      1.52255      7.90400      4.72367        -0.908385     -0.024741      0.322151
W	      1.56739     11.05680      4.70930         0.324122      0.028246      0.148347
W	      3.14272      9.44251      6.32939         1.365318      0.036186      0.601528
W	      1.50186     11.03300      7.81689        -0.006530     -0.388037      0.082940
W	      4.75603     11.08370      4.72574        -0.655650     -0.207614     -0.160004
W	     11.14050     10.97820      4.81892        -0.289951      0.410188     -0.063048
W	      0.00793      9.47007      6.28376        -0.082842      0.092354      0.318591
W	     14.23790     10.96830      4.76180         0.050488      0.286210      0.049353
W	     12.64530      9.41377      6.37449         1.318976      0.632310     -0.406498
W	     14.27110     11.03370      7.91476         0.444862     -0.196101      0.135153
W	      3.15748     15.75010      6.32157         0.056791     -0.104144     -0.058358
W	      1.58593     14.21960      4.72815         0.107486      0.343108      0.189839
W	      3.17920     12.65600      6.32951         0.158857     -0.181014     -0.173527
W	      1.65318     14.25650      7.91188        -0.120326      0.038446     -0.138636
W	      6.34420     12.68040      6.38298        -0.011307     -0.915604     -0.520265
W	      4.73815     14.22940      4.72995         0.401996     -0.168583      0.214820
W	      7.88620     14.18810      4.74182        -0.183990      0.323297     -0.150468
W	      4.75060     14.27230      7.92359        -0.227087      0.383904     -0.310310
W	      9.45733     12.59390      6.39842        -0.690252     -0.527425     -0.913491
W	     11.15220     14.15250      4.76899        -0.782512     -0.314644     -0.113339
W	     11.08950     14.24890      7.89968        -0.525895     -0.288219     -0.374094
W	      0.02728     12.65100      6.23750        -0.224395     -0.283840     -0.051258
W	     12.67510     15.79450      6.26484         0.017973      0.209906     -0.129214
W	     12.70680     12.62570      6.35666        -0.288620     -0.191160     -0.186372
W	     14.25070     14.31020      4.75543        -0.180325     -0.383931      0.259616
W	     14.17630     14.25740      7.89401         0.069593     -0.319646      0.256754
W	      1.56432      1.59806     11.10160         0.000159      0.122023     -0.273326
W	      3.17185      3.22872      9.47100         0.104284     -0.340519      0.391488
W	      3.15852      0.01117      9.50913         0.085361      0.021671      0.211276
W	      4.75094      1.53788      7.91797         0.039847     -0.293613     -0.226143
W	      4.81071      1.60846     11.02020        -0.031008     -0.045565     -0.029671
W	      6.36670      3.13475      9.45333        -0.327888      0.885668     -0.010745
W	      7.88426      1.63030     11.04000        -0.045514      0.132996     -0.056149
W	      7.88914      1.46821      7.92854        -0.208492      0.141052     -0.575573
W	     11.06880      1.64963     11.14760        -0.151019     -0.006218     -0.392594
W	      9.45670      3.15126      9.40569         0.073424      0.200248      1.645736
W	      9.49178     15.78670      9.42886         0.123142     -0.472093      0.337323
W	     15.79180      3.21756      9.48990         0.146808      0.037518      0.478096
W	     14.22160      1.59009     11.08160         0.099252      0.158339     -0.132425
W	     12.65300      3.19290      9.50894        -0.062562     -0.081116     -0.101705
W	      1.51773      4.77741      7.89796         0.607011      0.314452      0.055643
W	      1.57025      4.74606     11.06650         0.001084      0.254369      0.000106
W	      3.18162      6.41838      9.41525        -0.381455      0.143032      1.340994
W	      1.53615      7.90501     11.09920        -0.002186     -0.552459     -0.703586
W	      4.74313      4.77586     11.08390         0.312836      0.786905     -0.882859
W	     11.02590      4.77218     11.04120        -0.696147      0.673023     -1.052433
W	      0.00535      6.30735      9.52129         0.283811      0.387216      0.018037
W	     14.23100      4.77053     11.04390        -0.143360     -0.256844      0.286931
W	     12.66200      6.33856      9.42671        -0.651330     -0.116666     -0.485304
W	     14.25330      7.90116     11.04280         0.809114      0.263455      0.133027
W	      1.52402      7.92530      7.90429         0.044839     -0.056334      0.144931
W	      1.53573     11.01710     11.16090         0.544831      0.002477     -0.201771
W	      3.10346      9.41035      9.51038         1.418070      0.374218     -1.417181
W	     15.79900      9.47904      9.51884        -0.086297      0.040674     -0.004659
W	      4.76667     11.01820     11.05640        -0.814510      0.578608      0.772611
W	     11.03070     11.08030     11.02560        -0.807180     -1.259744     -0.139186
W	     14.35100      7.87097      7.93719        -0.603049      0.440842     -0.481636
W	     12.60440      9.44022      9.40859         0.291580      0.214419      0.943087
W	     14.21630     11.03480     11.07680         0.140339     -0.316922      0.163859
W	      1.58314     14.25590     11.08370         0.066132      0.039454     -0.132664
W	      3.19045     12.69000      9.50347         0.075064     -0.378733     -0.043041
W	      6.29556     15.80540      9.51034        -0.178275      0.269038      0.057338
W	      6.28662     12.67380      9.48249        -2.143538      1.376559      0.988817
W	      4.76195     14.25200     11.06240        -0.455384      0.149491      0.062407
W	      7.82760     14.22520     11.07040         0.526193      0.738858      0.205462
W	      7.83315     14.29270      7.94805         0.868875      1.240075     -0.839975
W	     11.03480     14.19030     11.12930        -0.283173     -0.084578     -0.623445
W	      9.25098     12.57810      9.50239         0.714492     -0.336121      0.697540
W	     12.69800     15.76090      9.58524        -0.031275     -0.343323      0.492582
W	     15.78020     12.64080      9.56166        -0.105886     -0.204274      0.223365
W	     15.77290     15.73970      9.50893        -0.178080     -0.071170      0.255672
W	     14.23610     14.20780     11.10850        -0.320625      0.123053     -0.220564
W	     12.72860     12.62210      9.51125         0.326252      0.250660     -0.284353
W	      0.03433      0.04074      0.01518         0.042156      0.239249     -0.077975
W	      1.58767      1.59276     14.25140         0.019853     -0.011688     -0.195179
W	      3.19779      3.28047     12.66630        -0.241738     -0.239324     -0.149249
W	     15.79860      3.12789     12.67020         0.258108      0.430924     -0.184831
W	      6.29594      3.15808     15.77500        -0.053844      0.091707      0.105788
W	      6.26418      0.01257     15.75730         0.018666      0.109314      0.046121
W	      4.73523      1.61350     14.23420         0.085265     -0.204996     -0.155222
W	      6.32094      3.23799     12.62190         0.026605     -0.906479      0.573110
W	      6.30416      0.08883     12.65730        -0.417114      0.104803      0.005964
W	      7.89210      1.61616     14.22000         0.191876      0.187710     -0.085826
W	     11.09470      1.67351     14.21430        -0.183427     -0.091810     -0.028057
W	      9.47815      3.19969     12.62680        -0.401781     -0.150733      0.109938
W	      9.50587      0.01654     12.73170         0.230555     -0.286732      0.075740
W	     14.23560      1.58262     14.23890        -0.196220      0.072972     -0.136162
W	     12.64490      3.18949     12.62700         0.124018      0.074690      0.184808
W	      1.62877      4.75293     14.21680        -0.000198      0.077418      0.036685
W	      3.16512      6.34187     12.62520         0.512029     -0.189457      0.022380
W	      1.60227      7.88911     14.23970        -0.383488     -0.137905      0.007524
W	     15.80060      6.29811     12.66460         0.336524      0.153066     -0.208942
W	      6.28808      6.27801     15.79600         0.092406      0.117326      0.075768
W	      4.76320      4.77358     14.23700        -0.279811     -0.062306      0.085056
W	      6.37507      6.40905     12.70300         0.288923     -0.393985     -1.177301
W	      4.75810      7.89019     14.27470        -0.033938      0.338898      0.080561
W	      7.91445      4.77530     14.24810         0.224754     -0.041243      0.029060
W	      9.51341      6.28066     15.79250         0.146105      0.208268      0.181426
W	     11.08690      4.75890     14.23090        -0.076419      0.013996     -0.428963
W	      9.49708      6.36093     12.72800        -1.138618     -0.304754     -1.750996
W	      7.87840      7.90403     14.36000         0.237985      0.125930     -1.143900
W	     11.07080      7.90623     14.30080        -0.160286     -0.286169     -0.501869
W	     14.16860      4.74700     14.18870         0.192676     -0.033914     -0.125916
W	     12.64900      6.33075     12.61580        -0.591092      0.278082     -0.214279
W	     14.26550      7.84818     14.21760        -0.257069     -0.002390     -0.019943
W	      1.54776     11.03420     14.27310         0.193203     -0.050606     -0.130661
W	      3.15500      9.37678     12.62960        -0.238866      0.194263      0.252079
W	      6.28129      9.48174      0.00549         0.055338      0.010326      0.244212
W	      4.78703     11.04560     14.28890        -0.152110      0.017214     -0.117740
W	      6.31776      9.49745     12.66510         0.761078     -0.717095      0.466906
W	      7.89392     11.05470     14.28230        -0.415728     -0.288565     -0.221383
W	      9.38487      9.39501     12.66680         0.646722      0.938716     -0.214324
W	     11.04240     11.04630     14.22440         0.183047     -0.254068     -0.284793
W	     15.80730      9.47672     12.69040        -0.173185     -0.096123     -0.421316
W	     12.57780      9.46790     12.58170        -0.329640     -0.017979     -0.712555
W	     14.25780     11.11070     14.23010        -0.132352     -0.164692      0.030110
W	      3.15348     15.76710     12.70970        -0.027471     -0.231177      0.088398
W	      1.56395     14.21860     14.24380         0.097220      0.093438      0.002497
W	      3.15912     12.69240     12.61730         0.123994     -0.080552     -0.323209
W	      0.02604     12.65320     12.65990        -0.215490     -0.020338      0.177198
W	      6.29716     12.64970      0.00514        -0.250504     -0.132114     -0.015632
W	      6.26387     12.58400     12.61400         0.045759      0.528268      0.126507
W	      4.65573     14.22010     14.27520         0.363410     -0.000721     -0.162820
W	      9.50639     12.61850     15.78320         0.171149      0.101978     -0.508415
W	      7.95614     14.21190     14.26480         0.191797     -0.072960      0.023798
W	     11.08150     14.13930     14.19270        -0.158545      0.102568      0.294471
W	      9.43296     12.58480     12.65420         0.299443     -0.078051     -0.051628
W	     12.65550     12.60750      0.00707         0.125624      0.435596     -0.133925
W	     12.66970     15.80480     12.65710        -0.045569      0.099675     -0.059075
W	     15.80970     15.80680     12.66220         0.130221     -0.031630      0.256179
W	     14.20000     14.19600     14.17160        -0.167155      0.337519     -0.009885
W	     12.63620     12.60060     12.62940        -0.141930     -0.017611      0.109067
H	      1.60568      3.19697      2.42566        -0.016709     -0.071220      0.005543
H	      7.15619      0.03034      1.54811         0.017214     -0.017842     -0.001581
H	      7.50068      4.71580      3.27619        -0.246158      0.211364      0.169735
H	      7.44323      7.92985      3.19938         0.252210     -0.079798      0.296371
H	     10.65090      8.06505      3.28092         0.061059     -0.502654     -0.166933
H	      4.54901      8.17936      3.32199         0.100782      0.103506     -0.119742
H	      8.37539     10.99260      3.38131        -0.336813      0.015926     -0.369447
H	      9.50404     14.18460      3.80866         0.144888     -0.022666     -0.032806
H	      9.53098     13.36840      1.69665        -0.085965      0.181647     -0.219030
H	     14.23440     12.62410      3.96272         0.031955      0.031867      0.014691
H	      3.20490      1.61725      5.54361        -0.128627      0.114212      0.013652
H	      8.21803      3.41183      4.55854         0.181199     -0.286056     -0.100089
H	      4.78590      3.35295      7.50220        -0.186918      0.004786     -0.159487
H	      8.00033      3.26828      7.70027        -0.110468      0.125673      0.117347
H	      7.95961      0.00127      5.58291        -0.198667     -0.063669      0.149859
H	     10.31700      0.02974      4.67418         0.104247     -0.063053     -0.039353
H	      3.24545      7.49155      4.55919         0.780985     -0.028845      0.718294
H	      6.24258      5.03639      6.48165        -0.070186     -0.640282     -0.257058
H	      4.39647      4.79853      6.48723        -0.863295     -0.062008      1.033973
H	      4.83231      6.44923      4.08074        -0.189570      0.950121     -0.136612
H	      4.85291      6.46072      6.00678         0.446019     -0.085034     -0.046869
H	      6.47802      4.18510      4.76520         0.438101     -0.239593      0.211127
H	      7.85391      6.34746      4.18081         0.122039     -0.178475     -0.482994
H	      7.29201      7.60270      8.55925        -8.078890     -2.457552     -3.164951
H	      6.36668      4.32357      7.94724         0.095707     -0.471707      0.068367
H	      8.20751      7.67162      7.06240         2.065918     -2.626715     -2.008352
H	      8.20542      6.75034      6.65492         4.943538     -0.757664     -0.041678
H	      8.08638      6.06068      8.67711         0.211707     -3.614154      1.788410
H	      7.56565      6.57985      6.24703        -7.656046    -12.627380     13.663790
H	      8.23894      6.21976      7.97784         1.792143     -3.350389      0.668251
H	      6.53210      7.21398      7.11351        -2.888984     -2.392960     -0.945739
H	      9.56180      8.50455      7.61094         3.101573      3.611597      0.917167
H	      7.88458      9.96739      6.38298        -0.571155      1.176222     -1.052673
H	      8.59704      9.42663      7.39287         1.634297      3.488513     -2.947033
H	      8.18547      8.60445      6.19708         2.509031      0.776545     -0.383880
H	      7.94164      4.30107      6.18233        -0.061898     -0.099330      0.256685
H	      9.24857      4.76903      4.01195         0.026891      0.197652      0.274355
H	      9.68003      4.93993      6.04889        -0.079459     -0.219121      0.105736
H	      6.01425      6.52012      8.45188        -3.666823     -1.819180      1.665786
H	     10.82520      6.25352      5.90073         1.029531     -0.574346     -0.617612
H	     11.01570      6.36843      4.07884         0.365705      0.718889     -0.089660
H	     11.72750      4.77474      6.64447        -0.118251     -0.126014     -0.024918
H	      9.09801      7.74381      4.49670         0.567933      0.199881     -1.340429
H	      5.77619      7.33041      9.09263        -1.483418     -0.222878      4.029264
H	      9.41709      8.18406      6.45624        12.761433    -14.942214     13.442545
H	      8.45445      9.16153      8.02557         0.024386      0.049860      3.780965
H	      4.22730      6.61871      7.90818        -0.300702     -0.206328     -0.306157
H	      3.27855     11.16710      7.39172         0.275784     -0.566106      0.211011
H	      6.15509      8.01833      4.43995         0.270291     -0.185021     -0.856734
H	      4.14250      9.04765      4.72910        -0.259726      0.663700      0.081357
H	      6.54351      9.48331      9.23737        -8.978905      2.920591      3.655409
H	      7.16867      8.43672      9.59826         7.854413      5.095005     -0.936682
H	      6.46598      6.21275      4.76658        -0.228009     -0.254325      0.955736
H	      9.20286      8.48306      6.12872        -6.019856     13.826131    -17.664731
H	      4.23519      7.94604      6.49850        -0.218709     -0.285435     -0.152545
H	      6.45463     10.90740      6.28587        -0.338136      0.209037     -0.189057
H	      4.99702      9.89423      6.34860        -0.451880     -0.507567     -0.223108
H	      4.82647     11.64010      6.66587        -0.352017      0.468233     -0.286492
H	      6.60573     11.06230      4.26827        -0.148103      0.009383     -0.693499
H	      6.12126      9.58665      4.97864        -0.253154     -0.277162     -0.277861
H	      7.72247      9.18162      6.14964        -4.110537      6.847134     -1.459153
H	      4.34983      9.31555      7.90963        -1.108472      0.199314      0.146143
H	      9.56960      7.75790      8.52934         2.949650      1.090885      2.644269
H	      7.89907      9.51145      4.28813        -0.246695     -0.272653     -0.589678
H	      6.28534     11.68180      8.01795         0.275151     -0.726288     -0.705168
H	     11.52270      8.11275      6.08322         0.216097     -0.750310      0.132570
H	      7.03748      9.34010      8.88397        -2.861181     -0.205053     -2.213765
H	      7.93811     11.44830      6.04778         0.141841      0.809911      0.568307
H	      9.44738      9.58913      5.04999         0.408618      0.093095     -1.199830
H	      9.16860     11.30880      4.72927         0.370677      0.798653      0.203988
H	     11.18630      9.20258      4.28554        -0.192566      0.009743      0.132703
H	      9.93920     10.69370      6.38150        -0.406975      1.083444      0.039429
H	     10.94320      9.87365      6.34214        -0.033315     -0.170921     -0.007455
H	      7.82265      7.95533      8.68969         1.568365      2.761889     -0.920433
H	      6.66193      8.18465      9.71252       -14.701207     -7.735916      4.651119
H	      7.69937      9.48351      8.61084         3.519507      2.407678     -3.208762
H	      6.71972      6.41218      8.29048        -2.639404     -1.970468      6.900516