  6.3360071e-01   2.0470019e-01
  1.5084482e+00   1.4938726e-01
 -1.1624346e+00   6.2262289e-02
  6.7541599e-01   8.1930585e-02
 -4.2254147e-01   1.0201629e-01
  1.5270075e-01   7.5423785e-02
  9.8707408e-02   5.5625830e-02
  1.9059342e+00   1.2204639e-01
 -2.7215073e-01   1.5137294e-01
  1.1372900e+00   2.5137761e-01
  2.2143872e+00   4.4457782e-02
  8.0358595e-01   1.3945523e-01
  1.2234704e+00   8.5400991e-02
  2.4226623e+00   3.4397915e-02
  3.3524299e-01   1.0667404e-01
  1.2012957e+00   4.3506790e-02
 -1.0081782e+00   5.8415078e-02
 -8.3699393e-01   2.8014088e-01
 -1.2881839e+00   1.0681820e-01
  3.2521346e+00   8.5577875e-02
 -1.8370217e-01   7.5131506e-02
  2.0567117e+00   6.5385602e-02
 -8.5023975e-01   3.1873384e-01
  5.0327253e-01   3.2633539e-02
 -2.4374196e-01   5.2255698e-02
  4.6584360e-02   2.3276523e-01
 -1.5821226e+00   2.3543844e-01
  5.3454804e-01   7.4007601e-02
 -1.1335098e+00   5.9706047e-02
 -1.0252143e-01   1.3948814e-02
  4.8833445e-01   6.3774481e-02
 -1.9160712e+00   2.6145741e-02
 -9.4044203e-01   3.0466037e-02
 -7.7952254e-01   5.2530639e-02
  1.3292117e+00   5.4556921e-02
  1.3302466e+00   3.3431266e-02
  2.4690135e+00   2.7891615e-02
  8.6964756e-01   6.0147140e-02
 -3.3169338e-01   3.7402462e-02
 -2.7286937e+00   1.5321056e-02
 -1.8460344e+00   5.4983705e-02
 -3.3834234e-01   2.0146940e-02
  5.3259630e-02   1.4668997e-01
 -1.5774411e+00   4.4143703e-02
 -7.6030670e-03   5.1966149e-02
 -1.5687047e+00   3.0786261e-02
  1.9412973e+00   2.4920933e-02
  1.3485682e-01   4.5512088e-02
 -3.6492648e+00   6.3377820e-02
  4.3709034e-01   5.9258234e-02
 -1.0827472e+00   1.8343180e-02
  8.3663338e-01   8.5041322e-02
 -1.2666522e-01   3.3386230e-02
  1.0615044e+00   8.8554375e-02
 -4.8944810e-01   7.5400263e-02
  1.9737821e+00   1.5462412e-02
 -2.1161494e+00   2.0803468e-01
  3.2101339e-01   1.0264605e-01
  1.4184371e-02   1.8472697e-01
 -5.0752902e-01   6.8572246e-02
 -1.4661929e-01   5.9113484e-02
 -2.2668662e+00   7.1818814e-02
 -4.5504010e-01   1.1867539e-01
  1.3654739e+00   2.3944121e-02
  1.5403489e+00   9.6289702e-02
 -1.2218055e+00   9.0006731e-02
  5.0018507e-01   4.8065238e-02
  1.1296464e+00   1.4983906e-01
 -1.7102854e+00   6.8953872e-02
 -7.3154497e-01   2.9919249e-01
  2.5322609e+00   1.1134932e-01
  4.5107082e-01   1.4476034e-01
 -2.3929616e-02   2.1430288e-02
  1.0622835e-01   4.1032944e-02
  2.2950959e+00   8.5774429e-02
  2.9084557e-01   5.9627071e-02
  1.6987181e+00   9.6209787e-02
 -2.9104390e+00   9.4151676e-02
 -2.5931468e+00   1.6473539e-01
  3.6693275e-01   2.0983814e-01
 -1.8521382e+00   6.3196838e-02
  6.0647780e-01   9.7074270e-02
 -4.4007045e-01   1.5816826e-01
 -4.1358230e-01   1.1760284e-01
 -4.1688988e-01   1.4938802e-01
  1.5599301e-01   3.4381721e-02
  2.1450779e+00   1.1417443e-01
 -1.8215876e+00   3.0622171e-02
 -1.2316242e+00   4.3703537e-02
 -9.4069296e-01   2.8627435e-02
 -1.1727657e+00   8.1183217e-02
 -2.4833508e-02   9.9674955e-02
 -8.3690405e-01   5.8678403e-02
 -1.2614222e+00   8.2211055e-02
 -3.8360062e-01   3.7135269e-02
  4.4720986e-01   1.0044055e-01
  8.7389576e-01   8.8285118e-02
  1.7662122e+00   5.8113948e-02
 -1.4598917e+00   5.3556245e-02
  4.1496962e-02   6.4738423e-02
  1.3473189e+00   9.5885292e-02
 -3.9262158e-01   8.2436822e-02
 -5.1144916e-01   2.6261216e-01
 -3.1962845e+00   6.6023596e-02
  1.0737257e-01   4.6442878e-02
  2.6467173e+00   9.0469517e-02
 -1.5346072e+00   2.2559161e-01
 -1.0828190e-01   8.9079440e-02
  1.5386903e+00   6.4636707e-02
 -2.5066967e+00   1.1780847e-01
 -3.4712422e-01   4.7898665e-02
  1.1685104e+00   5.7347585e-02
  1.9893722e-01   1.0631429e-01
  1.1971034e-04   2.3382692e-01
 -2.3035603e+00   8.4700175e-02
  1.6275820e-01   1.2558538e-01
  3.7930171e+00   8.8921808e-02
  7.6650435e-01   6.4705342e-02
  1.3300968e+00   5.5857088e-02
 -4.0490618e-01   9.8700188e-02
  1.0984486e+00   2.4617022e-02
  4.4008911e-01   7.9132970e-03
  7.1002141e-02   4.1149795e-02
 -6.4173967e-01   1.6858565e-02
 -1.1131660e+00   3.1433132e-02
  6.9328696e-01   3.0938137e-02
 -5.7963673e-02   4.4437699e-02
 -4.5116720e-01   1.5420628e-02
  1.7770603e+00   1.1922273e-02
 -5.6059951e-01   1.8913947e-02
  1.8173537e+00   5.9903741e-02
 -2.8534490e-01   5.1000502e-02
 -1.3549579e+00   3.2919213e-02
 -1.1195982e+00   6.4265937e-02
 -5.0758940e-01   3.2123558e-02
  7.2258002e-01   6.6742234e-02
 -1.3262386e+00   1.1638383e-01
  7.7347159e-01   6.0194351e-02
 -3.4922385e-01   1.0990769e-01
 -1.4604377e+00   6.9917507e-02
  2.3528068e+00   2.1259345e-02
 -4.6628296e-01   4.6288446e-02
  9.7684133e-01   3.8039427e-02
 -1.8707129e+00   2.7721317e-02
 -1.7666137e-01   3.9476484e-02
 -1.1994779e+00   1.1384483e-01
  6.1682113e-02   1.1059896e-01
  1.1267202e-01   5.8001462e-02
  7.3403513e-01   1.5039392e-01
  1.7670497e+00   9.0978809e-02
 -1.1881542e+00   1.2983674e-02
 -3.2041144e-01   1.1239678e-02
  2.1934819e+00   9.6614242e-02
 -3.9142883e+00   5.6517098e-02
 -7.7916014e-01   5.1159309e-03
 -7.7346116e-01   9.3239668e-04
 -7.9254103e-01   2.3188211e-03
 -3.7021995e-01   1.5397252e-03
 -1.9023567e+00   1.1269788e-03
 -1.1136523e+00   2.6109291e-03
  1.1278092e+00   8.4576039e-03
 -5.1774120e-01   2.1725062e-02
 -9.7650206e-01   1.1598412e-02
 -9.4742489e-01   2.3083570e-03
 -3.6588344e-01   5.7444237e-03
 -2.5632954e+00   5.4754458e-02
 -3.7421215e-01   1.0214057e-02
 -2.6690364e-01   1.5249523e-02
 -1.5202278e+00   3.1221760e-02
 -9.4282287e-01   4.0168818e-02
  1.2547357e+00   7.2446223e-03
  1.7079388e+00   5.4397541e-03
  4.5349982e-02   6.4359144e-03
 -3.6701701e+00   5.1645017e-03
  4.3864539e-01   1.2753786e-02
  1.7973394e+00   6.2667313e-03
  3.0570064e+00   1.1424487e-02
  7.1125770e-01   1.1758324e-02
 -2.8705010e+00   9.8710358e-03
  1.0597714e+00   2.3786118e-02
 -2.0130022e+00   7.1749724e-03
  8.9037949e-01   3.5992961e-03
  1.2433286e+00   9.3614198e-03
  1.1580750e+00   5.1315739e-03
  7.7845961e-02   1.6518308e-02
  3.3814583e+00   1.0388116e-02
 -3.4825075e+00   1.3139614e-02
  4.4369397e+00   5.1409248e-02
 -2.6891143e+00   2.6129125e-02
 -6.7502566e-02   8.4438972e-02
 -2.1331224e+00   1.2068716e-02
  1.9733666e+00   1.7067734e-02
 -2.3193059e+00   1.9547701e-02
 -3.1959957e-01   6.8276268e-03
 -2.6323321e-01   8.3604911e-03
  6.6507584e-01   5.9513550e-02
  1.0262481e+00   1.6498988e-02
 -7.7562553e-01   1.3125135e-02
  3.8709188e-01   3.9437886e-02
 -4.9368754e-01   2.7342925e-02
  1.8438894e+00   1.2926154e-02
 -1.0630220e+00   7.9645300e-03
 -1.9201849e+00   2.3039000e-02
  7.7990256e-02   1.0911525e-02
 -2.8079024e-01   1.9670043e-02
  6.0005432e-01   9.9201575e-03
  7.3864120e-01   8.1040319e-03
 -1.6316697e-01   1.5313336e-02
  1.0200382e-01   8.2685873e-03
  2.3444717e+00   2.4336552e-02
  3.0970707e+00   1.0037588e-02
 -9.8496670e-01   1.2914132e-02
  1.0319345e-01   1.9523570e-02
 -1.1347696e+00   5.4693548e-03
  6.9124997e-01   1.7292369e-02
 -2.5403724e+00   3.1129466e-02
 -2.8760152e+00   3.0829720e-02
 -8.8482249e-01   4.9780928e-02
 -1.4260774e+00   4.2960580e-02
  1.8053219e+00   5.8189269e-02
 -1.6616888e+00   1.3468988e-02
 -6.1583853e-01   2.2068202e-02
  4.2443931e-01   6.5076210e-02
  3.4098259e-01   7.3130475e-03
  1.0540969e+00   9.6624475e-03
  2.5979803e+00   1.1697774e-01
  6.4463764e-01   3.3719234e-02
  1.5443952e+00   5.1897097e-02
 -6.3850307e-01   3.7131257e-02
  1.0391991e+00   3.4554690e-02
  2.1971068e+00   2.2242049e-02
  2.2380891e+00   4.2044841e-02
 -9.4048500e-01   2.1758700e-02
  9.0698224e-01   3.2262679e-02
  6.2846345e-01   3.2962758e-02
  1.3242112e+00   1.5500466e-02
 -5.2888999e+00   4.2693168e-02
  4.6348742e-01   2.2938346e-02
  9.5971912e-01   1.4795496e-02
 -1.9684985e-01   1.1515906e-01
  1.0164914e+00   1.9406840e-02
  1.9285693e+00   2.0402070e-02
 -1.5327551e+00   2.2165485e-02
 -7.1523410e-01   2.0756053e-02
  3.5654511e+00   9.4206028e-02
 -1.5531768e-01   1.3232170e-01
 -1.9421480e+00   1.6280590e-01
 -8.4451532e-01   1.6187900e-01
  2.5111761e+00   1.5334645e-01
 -2.9297717e+00   8.1177786e-02
  7.7701664e-01   9.5959269e-03
 -1.2538464e+00   2.0010486e-02
  2.4802242e-01   9.5350677e-03
  1.0579203e+00   5.6353183e-03
 -1.4488721e+00   8.5454285e-03
 -1.5099009e+00   2.9644728e-02
 -2.0740902e+00   2.8785134e-02
 -7.2597259e-01   1.3312107e-02
 -1.1785599e+00   1.0843650e-01
 -2.7305090e+00   8.8032752e-02
 -3.1115203e+00   3.4405340e-02
  8.0366439e-01   2.7074892e-02
  2.4366505e-01   2.1924557e-02
  1.1364264e+00   1.1933383e-02
 -8.7525225e-01   2.3403760e-02
 -6.6419548e-01   2.1545269e-02
  6.4505345e-01   5.2928057e-02
  2.7545288e+00   1.2252205e-02
 -1.5043648e+00   2.0316431e-02
 -1.7083210e-01   3.3766866e-02
 -1.5822284e+00   1.6823603e-02
 -7.4665082e-01   2.3846846e-02
  5.2672976e-01   1.5027715e-02
  7.5529152e-01   1.6675370e-02
  7.0262921e-01   3.9006926e-02
  3.1896358e+00   6.1198097e-02
 -2.5457755e-01   6.6953816e-02
 -2.4640400e+00   3.6535546e-02
 -6.1890745e-01   9.7447664e-02
 -1.2838058e-03   1.3730548e-01
 -1.8962618e+00   1.3228701e-01
 -1.1639769e+00   2.0084164e-01
  2.4059087e-01   5.6061853e-02
 -4.2076659e-01   5.5025581e-02
  6.5851188e-01   1.9045053e-01
  2.0504348e+00   3.3817512e-01
  4.9132162e-01   1.7919339e-01
  2.1978123e+00   9.3359813e-02
 -4.2065075e-01   6.6729844e-02
  2.9577634e-01   1.4687538e-01
  6.8150938e-01   7.7033788e-02
 -1.3573298e+00   2.0333092e-01
  7.7871442e-01   4.4965263e-02
  1.2138989e+00   6.6044219e-02
 -7.4086601e-01   3.7452199e-02
 -2.1104810e+00   8.8682786e-02
 -2.3704727e-01   1.4965419e-01
 -1.3476461e-01   4.0744763e-02
 -1.9994320e+00   1.2392496e-01
 -4.4649619e-01   2.0664260e-01
 -5.9429991e-01   4.8381850e-02
  9.9580485e-01   2.1724178e-01
 -1.5827236e+00   4.9531654e-02
 -2.9429549e-01   2.9303157e-01
  4.6578388e+00   8.2865529e-02
  5.5567741e-01   8.2491517e-02
 -2.2397339e-01   4.0482590e-01
 -1.1929379e+00   2.0142406e-01
 -8.4981799e-02   8.4036127e-02
  2.8800558e-02   2.7764887e-01
  1.3056771e+00   1.7379402e-03
  5.1669282e-01   2.8369927e-03
  5.6202412e-01   2.7571190e-03
 -6.2552696e-01   2.3204680e-03
 -6.0262764e-01   5.1107191e-02
  3.7858529e+00   2.8658072e-03
  1.8888563e+00   2.9031220e-03
  1.4162738e+00   3.1219414e-03
 -2.5690432e+00   2.9488069e-03
 -6.9802278e-03   2.8948425e-03
 -1.4404126e+00   3.3884678e-02
 -5.9725451e-01   4.8995230e-02
  1.8213111e+00   1.3970370e-02
 -9.0363657e-01   2.1483179e-02
 -1.2474158e+00   6.5844022e-02
  2.2713354e+00   5.7306271e-02
 -1.0040054e+00   2.4819048e-02
 -5.2754170e-01   2.1586349e-02
 -1.9666337e+00   5.3115107e-02
  1.9233692e+00   6.3134946e-02
  7.1589828e-01   6.9658414e-02
  4.2508233e-01   3.6602601e-02
  8.7873954e-01   3.2644980e-02
  3.2614412e+00   3.8492493e-02
  5.9166294e-01   4.0369883e-02
  2.1343568e-01   2.0374119e-02
  1.1398716e+00   6.0449973e-02
  8.5249764e-01   5.2986301e-02
 -2.5410494e-01   3.0591812e-02
  1.6313413e+00   8.4893458e-02
  1.1658281e+00   3.3276003e-02
  2.9534359e+00   6.0409039e-02
 -1.5949439e+00   3.1843442e-02
 -1.7096874e+00   3.8176395e-02
  8.4893060e-01   3.6362011e-02
  9.4011807e-01   6.9698744e-02
  6.3009191e-01   7.2818011e-02
  1.9606894e+00   1.6384558e-01
 -5.8772874e-01   5.4975506e-02
 -2.2122109e-01   3.9012495e-02
  6.3284773e-01   3.9148875e-02
  2.1171188e+00   2.6374510e-01
 -1.9684368e+00   5.7916440e-02
  1.6949202e+00   1.1313612e-01
  1.1143170e-02   2.0819239e-01
  1.1688013e+00   4.1516632e-02
  1.2034479e+00   2.0094727e-01
  2.6602051e-01   1.3151273e-01
  3.3930840e+00   1.4928396e-01
 -3.0168396e-01   1.3450766e-01
  1.0770562e+00   9.8238662e-02
  1.2170074e+00   6.6288382e-02
 -2.4458368e+00   6.6002108e-02
  2.1228846e-02   5.2393001e-02
 -1.7139426e+00   9.9420279e-02
 -6.6712506e-02   1.9661617e-01
 -3.1606406e-01   4.3985855e-02
  6.0828072e-01   6.8473399e-02
  7.4070716e-01   1.6514611e-01
 -1.1257809e+00   2.2698428e-02
  1.5149452e-02   9.0730287e-02
 -8.3003378e-01   4.9377434e-02
 -6.0722452e-01   1.4021093e-01
 -9.9522069e-02   1.5827072e-01
  1.0603819e-01   6.4444050e-02
  8.1623286e-02   9.1686629e-02
 -3.8142028e-01   3.3952959e-02
  1.8713821e+00   1.7422120e-01
 -1.8891773e+00   3.1124618e-02
 -5.2385563e-01   2.5554615e-01
 -1.7667045e-01   1.4037682e-01
  1.7603410e+00   2.9130146e-01
  9.1830021e-01   4.4358566e-02
 -1.3560002e+00   5.4590851e-02
 -1.2120872e-01   8.0198057e-02
  7.5067294e-01   9.9032938e-02
  4.1315705e-02   6.3702121e-02
 -4.6913058e-01   2.3774874e-01
 -2.0804708e+00   1.6487257e-01
 -1.5863337e-02   1.5920037e-01
  1.2573590e+00   1.0389680e-01
  5.8962637e-01   1.6832507e-01
  9.3227768e-01   1.0129815e-01
 -2.7174878e+00   1.7824535e-01
  8.8344193e-01   6.6579998e-02
  1.3173908e-01   5.8932751e-02
 -1.2729532e-01   1.1354532e-01
 -1.4492552e+00   7.5454772e-02
 -1.3743074e+00   2.1493064e-01
 -8.7345518e-02   1.0171426e-01
 -3.5512621e+00   5.3180322e-02
 -1.2105527e+00   6.1752524e-02
  4.4036725e-01   8.0004930e-02
 -1.1238073e-01   1.3580638e-01
 -4.2866647e-01   4.7855441e-02
 -6.3073760e-01   1.6789104e-01
 -1.0023166e+00   4.9318794e-02
 -2.1439086e-01   2.8346106e-02
 -1.7191703e+00   4.0851872e-02
  1.5242643e+00   1.9149169e-01
 -1.2320173e+00   2.6242104e-01
 -7.8437203e-01   2.6684436e-01
 -8.1894726e-01   2.1150395e-02
 -4.3946168e-01   2.1063492e-01
  2.7699461e+00   1.3208573e-01
  1.4010135e+00   8.1056595e-02
  7.0669794e-01   1.1935921e-01
  1.7428285e+00   7.2838828e-02
 -1.4149847e+00   1.5501539e-01
 -4.9615141e-02   4.7461435e-02
 -2.1918714e+00   1.0375650e-01
  5.5385923e-01   3.0491956e-02
 -1.3379896e+00   7.9029843e-02
 -3.4603431e+00   7.5150050e-02
  3.9092964e-01   6.6299506e-02
  2.3857310e+00   7.7996723e-02
  7.1838254e-01   2.1181477e-02
  7.8547692e-01   5.0220020e-02
  5.7224214e-01   1.0746128e-01
 -4.8140988e-01   1.5833835e-01
 -9.9283743e-01   3.3040914e-01
 -2.2106805e+00   1.2575833e-01
  1.1034625e+00   1.1398967e-01
 -1.6617143e+00   9.0588860e-02
  2.5142169e+00   8.3927050e-02
 -2.6100659e-01   1.3636656e-01
  5.0493181e-01   5.4922219e-02
  1.6018362e-01   5.8196124e-02
  1.1625161e+00   6.5671347e-02
  1.8338277e+00   8.6140886e-02
  2.6600091e+00   7.5897425e-02
 -2.0609839e+00   5.4830417e-02
  5.1182795e-01   1.0448438e-01
  6.8858737e-01   1.3345197e-01
  7.1649420e-01   4.8856977e-02
 -2.4130188e-02   2.5930044e-01
  2.3466302e-01   1.4404833e-02
 -7.0547499e-02   7.0495069e-02
  1.3588997e+00   1.3558118e-01
  3.5517120e-01   2.5138587e-01
  1.5516609e+00   7.4283846e-02
  7.8055477e-01   2.9157592e-02
  1.5619229e+00   1.8637034e-01
  1.3136841e+00   7.8744262e-02
 -1.2140077e+00   4.9067259e-02
  2.6351473e+00   9.2326768e-02
 -8.7135297e-01   3.1287573e-02
  2.5185043e-01   1.4653558e-01
  2.1572678e+00   1.4039196e-01
 -6.4364463e-01   2.4868543e-01
  2.3204467e+00   6.7511402e-02
  1.5782244e+00   4.8607118e-02
  7.3510766e-02   1.2000395e-01
  1.7905203e+00   6.7539588e-02
  1.3862257e+00   9.4548918e-02
 -2.1333401e+00   3.1818613e-02
  4.2732075e-01   4.6399273e-02
 -2.1634960e-01   1.2508242e-01
  1.1882340e-01   1.9192488e-01
 -8.2107008e-01   2.2660473e-01
  1.7173107e+00   6.8913023e-03
  1.5577185e+00   8.9286931e-02
 -7.6494180e-02   2.0530233e-02
 -2.9586892e+00   6.0367666e-02
  5.8156013e-01   5.8627736e-02
  1.6339388e+00   4.2062975e-03
 -1.1865336e+00   9.2747547e-03
 -2.7351841e-01   1.0830191e-02
 -1.7017297e+00   1.6103856e-02
 -2.3813406e-01   7.1440935e-03
  3.2649881e-01   4.3738499e-02
  6.2063336e-01   4.4284023e-02
 -5.4979336e-01   4.0388837e-02
 -6.5724701e-01   6.8553463e-02
 -2.9182827e-01   1.9214975e-02
  2.1838768e-01   7.1833022e-02
 -8.8401437e-01   8.6172052e-02
 -1.6075478e+00   1.0163591e-01
  1.8254414e-02   3.1219678e-02
 -2.1882074e+00   5.9706423e-02
  1.1060823e+00   2.5337882e-02
 -3.7525096e+00   4.6985358e-02
  1.3226210e+00   4.2707287e-02
  1.7005661e+00   7.5949386e-02
  1.3669921e+00   6.4392768e-02
 -2.2169321e+00   6.4723708e-02
 -1.6721816e+00   1.2727647e-01
  3.8360435e-01   8.0981433e-02
  2.0608537e-01   7.4011870e-02
  1.2439281e+00   4.0835932e-02
 -3.1373415e+00   3.1715546e-02
  1.0512145e+00   7.6055564e-02
 -1.9058218e+00   1.0150163e-01
 -6.7397982e-01   1.3130838e-01
 -2.7346423e+00   3.3092350e-02
 -8.5183573e-01   2.1027039e-01
  4.8279129e-03   1.6266011e-02
 -5.1261503e-01   1.1360015e-01
  1.2876599e+00   8.1297860e-02
 -7.4166459e-01   4.5037013e-02
  3.1542432e-01   9.3810663e-02
 -1.0996414e-01   7.3709965e-02
  3.4135005e+00   6.6247419e-02
  1.3886465e+00   8.9178316e-02
  1.4105148e+00   1.0493548e-01
  1.5588154e+00   3.4654673e-02
 -9.4528580e-01   3.5064001e-02
 -2.3451682e-02   6.5493368e-02
 -9.7074640e-01   4.8721336e-02
  6.2272912e-01   7.2540969e-02
 -7.4943304e-01   4.3750037e-02
 -3.3893070e-01   5.2703254e-02
  1.5658507e-01   9.7109012e-02
  1.5646533e+00   1.9275853e-01
 -3.8378075e-01   1.4087006e-01
  2.1871831e+00   1.3678919e-01
 -1.7628191e+00   3.3289362e-02
  1.1684438e+00   7.7588059e-02
 -1.4182959e+00   1.7423621e-01
 -9.5771539e-01   2.4660990e-02
 -2.2391317e+00   9.5720991e-02
  8.6009252e-01   1.8731441e-01
 -6.6115749e-01   4.2526323e-02
  1.4669928e-01   1.1761640e-01
 -9.3397272e-01   7.5121574e-02
 -1.2086104e+00   1.0311802e-01
  8.1573945e-01   1.2395042e-01
  4.1032758e-01   4.9126156e-02
  1.1383587e-01   1.9677889e-01
 -3.7035492e-01   1.3452318e-01
  1.0937914e+00   1.7026679e-01
 -1.6487410e+00   2.3208903e-01
 -8.5973668e-01   1.2011666e-01
  3.8941205e-02   6.7347102e-02
  4.3532968e-01   1.4514372e-01
 -3.8962512e+00   4.8129994e-02
 -1.2769120e+00   1.5747155e-01
  9.2272371e-02   6.4711198e-02
 -1.8073586e-01   2.8148946e-01
  1.8314442e-01   5.1441971e-02
  1.7610193e+00   8.5776262e-02
 -7.0758533e-01   6.7429073e-02
  1.9261025e+00   1.6861978e-01
 -7.7096647e-01   2.4370487e-01
 -1.1507155e+00   1.3146080e-01
  2.9424891e-01   7.6322451e-02
  1.3290035e+00   2.4003504e-01
  9.3319997e-02   4.9726103e-02
 -3.3690846e+00   1.3740472e-01
  1.7379616e-01   1.9310485e-01
 -3.9966840e-01   4.1160658e-02
  3.4723473e-01   2.5953470e-02
  9.6409231e-01   6.3068986e-02
  2.4694090e-01   1.0240459e-01
 -7.2028285e-01   9.1812998e-02
 -1.6231948e+00   1.1405018e-01
  5.9450489e-01   1.1356442e-01
  7.9354763e-01   5.4443266e-02
  4.0190774e-01   1.2861866e-01
  8.9344859e-01   7.7340953e-02
  1.0160403e+00   6.8074808e-02
 -4.8677322e-01   7.7540189e-02
  1.0548229e-02   4.5744427e-02
  2.4397891e+00   1.4470316e-01
 -1.7981921e-01   1.9875860e-01
  3.1106186e-01   2.1099682e-01
  2.6946506e-01   1.3231204e-01
  1.0587153e+00   1.0595624e-01
 -3.8342455e-01   1.1535182e-01
  1.5698638e+00   2.9966873e-01
  8.6270255e-01   4.0104631e-02
 -4.8659182e-01   4.1848734e-02
  5.0219715e-01   6.3492306e-02
  1.0816766e+00   6.8021014e-02
  4.9645033e-02   8.6165167e-02
  6.1508799e-01   3.7132762e-02
  1.7416556e+00   1.1342878e-02
  6.0289538e-01   1.5216680e-01
 -6.7748773e-01   5.6297347e-02
 -1.0112432e-01   8.3393805e-02
 -2.4510438e+00   7.2501659e-02
 -1.0102745e+00   9.4449073e-02
  5.4127675e-01   1.3060512e-01
  6.6669774e-01   3.9181307e-02
 -2.5227955e-01   1.0484204e-01
  1.1936587e+00   1.0424615e-01
  1.3372087e+00   9.1735981e-02
  1.2490103e+00   2.0507911e-01
 -1.3649781e+00   6.6683546e-02
  7.2760117e-01   4.8538432e-02
  1.7256287e+00   5.3199254e-02
 -3.8208506e-01   1.5109919e-01
 -1.4751441e+00   5.4423787e-02
  6.2523341e-01   8.0703534e-02
  1.8163487e+00   4.0059790e-02
  4.1657996e-01   8.9819774e-02
  9.5160931e-02   1.0608176e-01
  3.2074451e-01   3.2199681e-01
  1.2449614e+00   7.3249742e-02
  1.4819450e+00   5.8429994e-02
 -1.7287353e+00   1.0344725e-01
  4.9253026e-01   5.7466269e-02
 -3.3336701e+00   8.0745794e-02
 -6.4723253e-01   2.6348697e-02
  1.3731740e+00   2.9262790e-02
 -1.8858308e+00   1.3459481e-01
  3.2724917e+00   1.2076309e-01
 -1.6458553e-01   2.1595196e-01
 -2.1328606e-02   2.5108674e-01
 -2.3779516e+00   8.5722290e-02
  3.7113988e-01   1.2364926e-01
  1.2887067e+00   9.0466417e-02
  8.6371511e-02   1.7169234e-01
 -2.2733435e-01   8.7779909e-02
  1.3730180e+00   1.2152635e-01
 -1.3469344e+00   1.3217591e-01
 -1.8801560e+00   5.4985739e-02
 -2.5920245e-01   6.1503973e-02
 -3.7266272e-01   8.1584029e-02
  1.7182423e+00   1.8427685e-01
 -5.9010416e-01   1.3796920e-02
 -1.7209973e+00   4.3378524e-03
  5.0699061e-01   4.1826785e-02
  6.1454487e-01   7.6085262e-02
  4.2923141e-01   4.3718155e-02
 -1.2004429e+00   3.9681564e-03
 -2.3800476e+00   1.7340166e-02
 -6.8624628e-01   9.6847871e-03
  2.6629698e-01   1.1640966e-02
  4.8379755e-01   9.3823308e-03
 -1.0891202e-01   5.2698296e-02
  1.2879112e+00   1.0154400e-01
 -9.4242954e-01   4.0826894e-02
  6.8050045e-01   1.2520336e-01
  1.3875169e+00   4.3141518e-02
  1.4207019e+00   1.0715894e-01
 -7.8220397e-01   1.0990181e-01
  8.4782112e-01   1.5653148e-01
  1.2590685e+00   3.3659242e-02
  2.0835347e-01   4.5224898e-02
  2.5614069e+00   6.9587134e-02
  1.5550822e+00   6.4369187e-02
  8.9201614e-02   7.5551204e-02
  9.8180580e-01   4.5150064e-02
  3.7713555e-01   6.2426396e-02
  4.5437318e-01   4.6479832e-02
  9.8028243e-01   1.6148420e-01
 -1.0345581e-01   1.0003103e-01
  1.0087247e-01   7.7769831e-02
 -1.3006619e-01   1.2295347e-01
 -1.1008618e+00   3.7331253e-02
  1.0945971e+00   3.8573783e-02
 -1.2187456e+00   7.3463701e-02
  2.3574302e+00   6.4114965e-02
 -3.6239043e-01   1.1750238e-01
  1.3565067e+00   5.6913625e-02
 -1.3054298e-01   6.8969220e-02
  2.6555136e-03   1.9903383e-01
 -2.5420251e-01   5.4779433e-02
  5.2569383e-01   1.1187679e-01
 -2.8074762e-01   8.7417789e-02
  4.3801844e-01   1.0620407e-01
 -3.3345737e+00   5.8564369e-02
 -1.5098881e+00   1.7067192e-01
  3.5133520e-01   9.5890962e-02
  7.6175082e-01   1.0816060e-01
  9.0875015e-02   9.2697307e-02
 -2.7706811e-01   1.7051272e-01
  1.4198737e+00   8.5909851e-02
  1.3450996e+00   9.7770751e-02
  1.4308591e+00   7.3444076e-02
  7.3811419e-02   2.1143131e-02
 -1.0700163e+00   6.7124791e-02
  4.3205175e-01   1.3221140e-01
 -6.5632856e-01   4.9578033e-02
  2.5858545e+00   9.7597070e-02
  1.8829381e+00   2.8598851e-02
 -6.9074917e-01   8.8712595e-02
 -1.6421506e-01   1.3179196e-01
 -2.5727883e-01   8.1443854e-02
  1.7914976e+00   5.3100154e-02
  2.6151085e+00   7.5086616e-02
  2.4165955e-01   1.7161438e-01
  2.9580488e+00   9.0936765e-02
  2.2914857e-01   7.3683999e-02
 -7.7475995e-02   9.4265945e-02
  1.0738537e+00   1.3137481e-01
 -2.4899611e+00   1.2206163e-01
  4.6980184e-01   6.0640708e-02
  5.2808201e-01   8.8593051e-02
 -2.0062070e-01   1.6190159e-01
 -2.3770175e+00   1.7949237e-01
  1.3771269e+00   8.1818886e-02
  3.7058461e-01   1.5496652e-01
  5.9930198e-02   1.5040322e-01
 -1.0339293e+00   2.2472234e-01
 -6.1078769e-01   2.2710791e-02
 -1.9542199e+00   4.8457056e-02
 -1.5372627e+00   1.3881245e-01
 -3.5577044e-01   3.9672576e-02
 -1.3140316e+00   7.3473342e-02
  6.0580838e-01   2.4334131e-01
  4.5696303e-01   4.9513668e-02
 -8.1426460e-01   7.0823759e-02
 -3.1358941e+00   8.8475876e-02
  1.4263188e+00   7.5006902e-02
 -1.2633522e+00   1.1660368e-01
 -5.0970837e-03   3.4495211e-01
  7.1806628e-01   1.1806250e-01
  8.4672707e-01   4.2056639e-02
  2.1459626e-01   3.9357029e-02
  1.6067758e+00   2.4449380e-02
 -1.7668176e-01   3.7596336e-01
 -1.9763538e+00   9.2159376e-02
  1.3490059e+00   2.8913038e-02
 -6.2364137e-01   8.2994603e-02
  7.6491021e-02   9.4970591e-02
  2.1620718e-01   1.6230856e-01
  9.1919494e-01   1.7547579e-01
  1.9739245e+00   3.8239036e-02
 -7.3213577e-02   3.1513065e-02
  1.1642598e-01   2.5613949e-01
 -1.1956813e-01   1.4339390e-01
  1.7778550e+00   7.2739109e-02
 -7.2990584e-01   9.1254011e-02
  8.1661898e-01   1.3490064e-01
 -5.1582623e-02   9.3232609e-02
 -5.1353365e-01   4.6019115e-02
  5.3806359e-01   1.5839666e-01
  1.9073775e+00   1.1093137e-01
  2.8118375e-01   3.2415386e-02
  1.2931123e+00   1.7151751e-01
  2.6109667e+00   4.0155806e-02
  2.6171941e-01   6.0585964e-02
  1.9860910e-01   4.5582414e-02
  1.1642869e-01   1.5214564e-01
  4.2064181e-01   5.6941700e-01
 -1.0945936e+00   1.7195784e-01
 -9.9811214e-01   2.5073003e-02
 -2.8233347e+00   1.2085198e-01
  4.6227399e-01   7.1130611e-02
 -9.2410088e-01   7.6930165e-02
 -3.6206686e+00   6.1016932e-02
  2.4955596e-01   6.6010810e-02
  1.3889674e+00   8.8774160e-02
 -1.4757556e+00   1.6385394e-01
  3.7223297e-01   9.0347327e-02
  4.0199835e-02   1.6066039e-01
  6.7865765e-01   1.0728262e-01
 -2.3498480e+00   1.3909349e-01
  2.9237029e-01   1.3275680e-01
  9.6980220e-01   2.0915885e-01
 -1.4035080e-01   5.2353859e-02
  1.2308692e+00   4.3142065e-02
  2.8987220e-01   2.1168694e-01
 -1.3480008e-01   8.9156277e-02
 -8.9777297e-01   1.3528049e-01
 -1.5981976e+00   7.1106151e-02
  9.8018837e-01   6.6716664e-02
  4.1588774e+00   9.4069429e-02
 -9.4768167e-01   3.1840336e-01
 -3.0364168e-01   1.6898397e-01
  1.7105760e-01   4.8766968e-01
  1.1369701e-01   2.6153383e-01
  3.0919747e+00   7.9676479e-02
 -7.5008720e-01   2.3744175e-01
  5.3238237e-01   3.4288016e-01
 -1.5625644e+00   3.7090302e-02
  3.2545227e-01   2.6742021e-02
 -1.2482811e+00   4.2078037e-02
  3.4364200e-01   2.4901691e-01
 -2.8201377e-01   6.9641575e-02
  1.1688982e+00   1.6501482e-01
  2.6567681e+00   2.4945104e-02
 -1.3480128e+00   2.0625621e-01
 -8.9631498e-01   8.2302712e-02
 -5.9353793e-01   5.9156504e-02
 -3.9651957e-01   8.7118216e-02
 -2.5165434e+00   9.7300820e-02
 -1.9495519e-01   9.0943195e-02
  9.0424293e-01   8.6265299e-03
  1.5475085e+00   1.9151563e-02
  1.5013129e+00   7.0242681e-02
 -9.3830991e-01   1.0657998e-01
 -1.1856052e+00   4.4217587e-02
  2.8160582e+00   3.2515101e-02
  5.7426929e+00   2.8915258e-02
  3.3144319e-01   4.1320246e-02
  2.4275541e+00   3.8099751e-02
  5.0348297e-02   3.2952730e-02
  1.4594080e+00   4.1786999e-02
 -9.8385476e-02   5.0050214e-02
 -1.8699342e-01   1.2365878e-01
  8.1841826e-01   5.5712622e-02
  1.6946834e+00   3.1802323e-02
  5.0418419e-01   5.5201199e-02
  1.3549887e+00   5.3737126e-02
  9.2932039e-01   1.2158321e-01
 -1.4870551e-01   2.4031669e-01
  2.1725583e+00   1.0572291e-01
 -2.3201466e+00   4.4538509e-02
  6.8890595e-01   5.3281598e-02
  5.4097009e-01   5.1617388e-02
 -6.0626400e-01   3.9389974e-01
 -1.1194425e+00   7.8182869e-02
  9.5997161e-01   8.6410321e-02
 -4.1294065e-01   7.5710386e-02
  3.8965139e-01   1.1665220e-01
  3.7722796e-01   7.7065565e-02
  1.0298194e+00   1.3936019e-01
 -1.5339725e+00   4.8281170e-02
  1.2432161e-01   1.8402502e-01
  5.3298569e-01   1.2722698e-01
  1.8740617e-01   1.1368506e-01
 -4.8837516e-01   6.0143314e-02
 -3.6486587e-01   7.1269408e-02
  4.4481751e-01   4.0415283e-02
 -2.0023675e+00   2.1239710e-01
 -2.0843111e-01   1.5089983e-01
 -5.9827048e-01   2.6145238e-01
 -1.0910819e+00   4.9344208e-02
 -6.0846448e-01   1.5895335e-01
 -3.5861957e-01   1.9209583e-01
 -2.2903440e+00   4.5143984e-02
  1.4225505e-01   2.7042676e-02
  1.2706231e+00   8.8433243e-02
 -8.5457161e-02   2.0103073e-01
  1.4610394e+00   6.9937505e-02
  1.4834042e-01   1.8051055e-01
  2.0803690e+00   1.3138816e-01
  3.2129095e+00   1.5285671e-01
 -1.0131600e-01   2.9739175e-02
  8.5892260e-01   1.2817584e-01
  5.9578025e-01   3.2554054e-01
 -2.8590900e-01   7.9457864e-02
 -1.1814383e+00   6.4620353e-02
  1.5704240e-01   4.9070697e-02
 -1.6233708e-01   2.6002622e-01
  1.3552214e-01   2.4884824e-01
  2.3132539e+00   1.0011699e-01
  1.4528004e+00   1.1529101e-01
  1.5119539e+00   6.1850753e-02
  7.2087717e-01   1.6280867e-01
  4.4930318e-01   1.0573136e-01
 -9.2979163e-01   1.3322312e-01
  1.3391352e+00   1.4316483e-01
  5.9710997e-01   7.3912211e-02
  4.3935502e-01   1.0278603e-01
 -1.0428927e+00   1.1382701e-01
 -1.9660012e-01   1.5173963e-01
  2.0002510e-01   3.4509593e-01
  9.5954967e-01   7.5361595e-02
 -2.0710731e+00   1.3087030e-01
  6.8440044e-01   4.1405287e-01
 -2.2800155e-02   2.4108101e-01
  3.5979372e-01   2.2108352e-02
 -3.6338356e-01   7.8356139e-02
 -1.3436831e+00   6.0630120e-02
  6.3720047e-02   1.0565186e-01
 -1.2833415e+00   1.1122639e-01
 -1.4501849e-01   1.0342253e-01
 -1.1147937e+00   9.9529654e-02
  4.0730551e-01   9.5811062e-02
 -6.3698605e-02   1.8922152e-01
  7.6671249e-01   3.5651106e-02
 -7.6604480e-01   1.2053980e-01
 -1.0905746e+00   9.1393717e-02
  1.0414510e+00   3.0231029e-02
  9.5210814e-01   1.3247044e-01
  2.5143766e+00   6.6227555e-02
 -4.5206341e-01   1.0647839e-01
 -1.8584837e+00   9.3204066e-02
 -1.2997998e+00   1.7968144e-01
  3.8099119e-01   7.3611572e-02
 -1.6101260e-01   5.2323318e-01
  1.8884190e+00   6.4475752e-02
 -2.3574927e+00   1.2895708e-01
 -4.1389346e-01   1.4364088e-01
  8.8806242e-02   1.6576070e-01
  1.6227946e+00   6.2047869e-02
 -7.4727571e-01   7.2696447e-02
  7.3242694e-01   7.1320765e-02
  1.1420335e+00   9.4355993e-02
 -1.8559581e-01   2.0479639e-01
  1.8707650e+00   1.5029284e-01
 -3.3562887e-01   2.0726724e-01
  3.1687455e+00   1.3019435e-01
  2.4520791e+00   7.5203024e-02
  1.0403217e+00   1.1860219e-01
  4.2403601e-02   8.1296228e-02
  2.9495084e+00   5.7021353e-02
  1.8623977e+00   1.2041054e-01
 -2.5855155e+00   4.0358912e-02
  1.3634969e+00   1.0400290e-01
 -2.8062263e+00   1.1756025e-01
 -2.3892708e-03   1.0113735e-01
 -1.7834375e+00   1.2151174e-01
  2.9793711e+00   9.8832995e-02
 -1.4298396e+00   4.8893850e-02
  3.1666869e-01   2.6793977e-02
 -3.0182937e-02   9.1402158e-02
  6.1942971e-01   3.6085483e-02
  5.9157878e-01   1.3034803e-01
 -1.2452943e+00   5.8068361e-02
 -5.9454381e-01   1.0992217e-01
  2.0630426e+00   1.0894702e-01
 -1.9595431e+00   1.0222267e-01
 -1.3756904e-01   1.6647470e-01
 -2.7107796e-01   1.1144260e-01
 -1.7240490e+00   9.2944816e-02
  2.4639285e+00   7.7195324e-02
  7.7677596e-01   5.4880377e-02
  6.3995934e-01   1.8072647e-01
  2.8905282e+00   1.5291685e-01
 -1.7562020e+00   1.1347285e-01
  1.3001240e+00   7.4031822e-02
 -2.5480862e+00   1.5075938e-01
 -3.0420497e-01   7.8353830e-02
 -1.2190604e+00   9.3043931e-02
 -2.1488883e-01   6.7443661e-02
 -6.0537744e-01   6.2516354e-02
  7.0536852e-01   1.1898215e-01
  3.6951289e-01   2.1800287e-01
 -4.4626594e-01   7.5501062e-02
  9.3920606e-01   2.8902883e-02
  4.9162418e-02   6.4627506e-02
  5.0821537e-03   2.2195494e-02