  4.6631557e-01   1.7223440e-01
  1.9760531e-01   1.3181798e-01
 -2.5202674e-01   6.3886434e-02
 -3.9516023e-01   9.7661883e-02
  2.8841177e-01   8.7550178e-02
 -3.3635652e-01   8.8404544e-02
 -1.0432521e+00   4.6622686e-02
  7.9552186e-01   1.2030894e-01
 -1.9901145e-01   1.9277978e-01
  1.3829325e+00   2.3875760e-01
  2.7654531e+00   4.5665633e-02
  6.7865223e-01   1.4984435e-01
  9.5954877e-01   9.1752328e-02
  2.6868701e+00   3.8880285e-02
  2.5486305e-01   1.0302617e-01
  1.3515116e+00   5.9656285e-02
 -8.8851780e-01   7.0777453e-02
 -2.0549458e-02   2.5150850e-01
 -1.2909704e+00   1.1424915e-01
  2.8622046e+00   7.6740921e-02
 -9.3072575e-01   7.9275027e-02
  2.0711224e+00   4.8289381e-02
  1.6092957e+00   2.4298337e-01
  4.6749541e-01   3.4363735e-02
  5.5733687e-01   5.1676869e-02
  4.4911137e-01   3.8406199e-01
 -3.2676330e-01   2.8039175e-01
  1.0237725e+00   8.3952717e-02
 -1.0857118e+00   5.1659394e-02
 -6.5188602e-02   1.2610739e-02
  6.5971106e-01   5.0224975e-02
 -1.7963848e+00   2.0263134e-02
 -9.3308717e-01   2.2677369e-02
 -5.4295468e-01   5.3307921e-02
  8.5895914e-01   4.6293586e-02
  7.6196611e-01   3.2771666e-02
  2.4735086e+00   3.4694295e-02
  9.8129749e-01   4.8761215e-02
 -1.6993675e-01   3.0063448e-02
 -2.5877140e+00   1.0448682e-02
 -2.0367651e+00   6.6458553e-02
 -2.9561457e-01   9.5493700e-03
  6.0242152e-01   1.2802418e-01
 -9.0401101e-01   3.4595888e-02
 -4.1507846e-01   4.6151713e-02
 -1.0859646e+00   4.6893243e-02
  1.5846932e+00   1.8620282e-02
 -4.0807012e-01   4.4664811e-02
 -4.1359277e+00   4.7919456e-02
 -2.9795972e-01   6.5290362e-02
 -9.8339343e-01   1.0218661e-02
  1.2850811e+00   6.9787785e-02
 -6.8523282e-01   3.4032501e-02
  1.1757879e+00   7.3464125e-02
 -5.1476443e-03   6.7710653e-02
  1.9477409e+00   1.2579081e-02
 -6.3084269e-01   2.0371476e-01
  2.8502202e-01   7.2427601e-02
  7.8083622e-01   1.0425517e-01
 -1.9044653e-02   9.0339325e-02
 -2.2532021e-01   5.3945825e-02
 -2.0468597e+00   8.1418552e-02
 -2.3953332e-01   1.1409704e-01
  1.3488028e+00   1.5800269e-02
  2.0988677e+00   1.0673988e-01
 -1.6500214e+00   6.9672450e-02
 -9.8783746e-02   3.9664626e-02
  6.7452937e-01   1.7380066e-01
 -1.7350880e+00   7.4483193e-02
 -7.1040863e-01   2.5127941e-01
  3.1592717e+00   8.7212406e-02
 -2.0477274e-01   1.7274205e-01
 -2.3298649e-01   1.4814623e-02
  1.8079442e-01   3.3643648e-02
  1.4205304e+00   1.0534001e-01
  5.0378624e-02   4.1244868e-02
  2.3838215e+00   1.2108701e-01
 -1.6398551e+00   1.1830100e-01
 -3.0914800e+00   2.3722653e-01
  8.8821992e-02   2.6397422e-01
 -1.9621476e+00   6.7615315e-02
  1.4245045e-01   1.0761759e-01
  4.5983458e-01   1.1764005e-01
 -1.8542257e-01   1.2660925e-01
 -8.5287303e-01   1.0814965e-01
  2.5113365e-01   3.6579795e-02
  8.2557541e-01   1.3064899e-01
 -2.3191831e+00   3.9682407e-02
 -9.9493825e-01   3.8029276e-02
 -7.2188967e-01   4.5822576e-02
 -9.1835064e-01   9.2579477e-02
 -2.1696480e-01   1.0529859e-01
 -1.7076635e+00   7.8625306e-02
 -1.6302284e+00   8.1820361e-02
 -2.4665032e-01   2.4309291e-02
  1.0525415e+00   7.5644828e-02
  4.8943746e-01   5.3360648e-02
  7.7862525e-01   7.7768296e-02
 -1.4895570e+00   3.6927056e-02
  5.1531351e-01   9.1549687e-02
  5.3586566e-01   1.1607800e-01
 -8.2362282e-01   7.0269674e-02
 -1.5526202e+00   2.3879525e-01
 -3.8364160e+00   4.9785346e-02
  2.4630241e-01   2.5386510e-02
  2.5498352e+00   7.4956201e-02
 -1.1355723e+00   2.2909439e-01
  1.2053045e-01   8.9236647e-02
  1.6607149e+00   3.6234409e-02
 -2.0626266e+00   8.6909309e-02
  2.3466632e-01   5.9954952e-02
  3.0442566e-01   5.5099282e-02
 -1.8631770e-01   1.1964653e-01
  8.8211071e-01   2.0327768e-01
 -2.4049318e+00   8.4477313e-02
 -1.9291159e-02   1.4902677e-01
  3.1514778e+00   7.9642721e-02
 -4.3922770e-01   8.4570393e-02
  1.8987710e+00   3.5946541e-02
 -2.5294438e-01   7.5630553e-02
  1.1371560e+00   2.2751817e-02
  4.8956636e-01   5.9721610e-03
 -2.9661798e-01   3.4036208e-02
 -4.4615546e-01   1.4485875e-02
 -8.7813699e-01   2.2367621e-02
  4.0330321e-01   2.5822688e-02
 -1.9647418e-01   3.7658673e-02
 -3.7733567e-01   8.4904376e-03
  1.8943311e+00   8.8190427e-03
 -4.3528959e-01   1.3237908e-02
  1.6516368e+00   5.7333976e-02
 -3.0491719e-01   3.9297756e-02
 -1.2714883e+00   3.6789365e-02
 -8.4643680e-01   6.0755000e-02
 -4.4230711e-01   2.8998304e-02
  1.0979661e+00   6.6677555e-02
 -2.2573528e+00   1.0402516e-01
  3.9104581e-01   5.3736076e-02
 -3.5951400e-01   9.6521445e-02
 -1.6541861e+00   5.5767756e-02
  2.2724683e+00   1.6332030e-02
 -4.2841807e-01   2.9470725e-02
  7.0117980e-01   2.4741136e-02
 -1.5321734e+00   2.6750538e-02
 -3.2197010e-02   2.7997093e-02
 -2.7448432e+00   1.1460549e-01
 -5.0450675e-03   8.7332383e-02
 -6.5997225e-01   3.6179703e-02
  2.6050916e+00   1.6726738e-01
  2.0627584e+00   1.1257393e-01
 -1.0849448e+00   1.0639803e-02
 -3.3529535e-01   8.6223464e-03
  1.2138904e+00   1.7318352e-01
 -4.1584973e+00   4.8830941e-02
 -8.3510095e-01   4.7305464e-03
 -7.6423144e-01   8.7384478e-04
 -8.0759031e-01   1.9949505e-03
 -3.5673907e-01   1.7733139e-03
 -1.9087214e+00   7.2637695e-04
 -1.0947101e+00   2.3589050e-03
  1.1030940e+00   1.1870090e-02
 -6.5909541e-01   1.8297885e-02
 -1.0971553e+00   1.0081539e-02
 -9.4028711e-01   1.8536871e-03
 -4.0827149e-01   4.5254440e-03
 -2.3759103e+00   6.1314818e-02
 -2.9685113e-01   7.7073709e-03
 -4.1847828e-01   1.4000490e-02
 -1.5948101e+00   2.3814529e-02
 -1.1255213e+00   3.6739305e-02
  1.1464517e+00   3.9727334e-03
  1.7026688e+00   4.3995213e-03
  1.1692270e-02   6.8948907e-03
 -3.6306777e+00   6.8176147e-03
  3.6772773e-01   1.4403820e-02
  1.8575897e+00   5.8118198e-03
  2.9060011e+00   1.1330580e-02
  8.1189889e-01   1.2600029e-02
 -2.9293976e+00   7.4863778e-03
  1.2967471e+00   2.2035569e-02
 -2.0036640e+00   8.7728603e-03
  8.7949139e-01   3.3323502e-03
  1.3637867e+00   7.9458198e-03
  1.1310028e+00   4.5465808e-03
 -1.3005249e-01   1.2383966e-02
  3.4648776e+00   9.7193252e-03
 -3.5712585e+00   1.0186177e-02
  4.2535958e+00   4.5451533e-02
 -2.7371366e+00   2.3010621e-02
  1.0497620e+00   7.7887163e-02
 -2.0389652e+00   1.6085867e-02
  1.9136244e+00   1.3562549e-02
 -2.5152893e+00   2.1039022e-02
 -2.6249227e-01   6.3851257e-03
 -2.3104572e-01   8.1180986e-03
  8.4247601e-01   5.8975093e-02
  1.0059901e+00   1.6078604e-02
 -6.0017556e-01   1.2964845e-02
  1.9525521e-01   3.5884939e-02
 -2.5448355e-01   2.0188397e-02
  2.0194631e+00   1.1946811e-02
 -9.9202067e-01   5.8836411e-03
 -1.9412977e+00   1.5450616e-02
  6.1245758e-02   7.2770440e-03
 -1.1008988e-01   1.1603748e-02
  5.5125326e-01   8.6352862e-03
  7.7746147e-01   4.7271312e-03
 -3.2650644e-01   1.3815122e-02
  1.6900997e-01   7.1128486e-03
  2.4709651e+00   2.0409901e-02
  3.1518838e+00   7.8379866e-03
 -9.5497477e-01   8.3026234e-03
  2.1708448e-01   2.3844112e-02
 -1.1140320e+00   3.0929223e-03
  6.8786454e-01   1.6575895e-02
 -2.7755761e+00   1.8622337e-02
 -3.2821515e+00   3.6660720e-02
 -9.2558289e-01   4.9373884e-02
 -1.4277171e+00   3.7993621e-02
  1.7471362e+00   6.2437367e-02
 -2.0152774e+00   1.5131394e-02
 -7.9158252e-01   1.9691141e-02
  1.2899762e-01   5.6370556e-02
  2.9384887e-01   4.4421665e-03
  1.1214937e+00   8.0978610e-03
  1.9403262e+00   1.3315976e-01
 -2.8105963e-02   3.2082006e-02
  2.2209327e+00   4.5891359e-02
 -6.0314041e-01   5.2616607e-02
  8.6101836e-01   3.3304825e-02
  2.0932708e+00   1.8866464e-02
  2.4523206e+00   3.1777188e-02
 -9.4667429e-01   1.3436233e-02
  6.3077492e-01   2.5196042e-02
  7.3032928e-01   2.5898010e-02
  1.3149894e+00   1.4106405e-02
 -5.2535133e+00   4.2214867e-02
  5.3703022e-01   1.1814400e-02
  9.1809911e-01   1.1750171e-02
 -2.3804459e-01   1.0425979e-01
  9.2067981e-01   2.0541344e-02
  2.4004042e+00   2.0072032e-02
 -1.6780270e+00   1.4951563e-02
 -8.7175530e-01   1.9165616e-02
  4.0146489e+00   6.6038318e-02
 -1.0180639e-01   1.3570270e-01
 -3.2629871e+00   1.8540291e-01
 -8.4469581e-01   1.9727889e-01
  1.1081481e+00   1.7857021e-01
 -2.9698808e+00   6.9120847e-02
  8.3301336e-01   8.5893208e-03
 -1.3280698e+00   1.1677776e-02
  2.5818071e-01   5.8747702e-03
  1.0847837e+00   3.7448909e-03
 -1.3480142e+00   8.0002639e-03
 -2.2783418e+00   3.7661679e-02
 -2.4270427e+00   2.4700155e-02
 -7.6094615e-01   1.0548077e-02
 -2.4300687e+00   1.0766393e-01
 -2.8691730e+00   7.5777948e-02
 -2.8602514e+00   2.9071119e-02
  6.6471189e-01   2.3437053e-02
  2.0385614e-01   2.2230510e-02
  1.0360962e+00   7.8562591e-03
 -1.3809682e+00   2.3824109e-02
 -4.0981364e-01   1.3602502e-02
  3.1690937e-01   4.4703621e-02
  2.8480108e+00   1.0993619e-02
 -1.7605864e+00   1.7984571e-02
  2.4404535e-03   2.0532524e-02
 -1.3812090e+00   1.0281148e-02
 -8.2609713e-01   1.8422501e-02
  5.5341190e-01   1.2834178e-02
  8.4735978e-01   1.0060886e-02
  5.2267051e-01   3.3895206e-02
  3.0086088e+00   4.5458376e-02
 -1.4211991e+00   7.4126564e-02
 -2.4963040e+00   3.3850249e-02
 -3.9500415e-01   6.7115963e-02
 -6.2358135e-01   1.0612725e-01
  6.0784947e-02   1.4378941e-01
 -3.7264949e-01   1.6331205e-01
  5.8954006e-01   5.3475756e-02
 -9.2588216e-01   7.7359058e-02
  8.6460859e-01   1.6824843e-01
 -2.5589764e-01   3.1293979e-01
 -6.5060949e-01   1.6893081e-01
  1.8693486e+00   8.0607429e-02
 -6.0672504e-01   9.1890328e-02
  2.2555921e+00   1.3525903e-01
 -2.6288688e-01   4.2722654e-02
  1.0423398e+00   2.1038979e-01
  1.1168385e+00   4.0221334e-02
  1.8947895e+00   5.2439708e-02
 -2.6620609e-01   3.3953603e-02
 -9.0086287e-01   9.1910049e-02
  2.3508020e-01   1.9748676e-01
  1.1416771e-02   3.9629035e-02
 -1.3130820e+00   1.3940088e-01
 -2.7361327e-01   1.7640407e-01
 -9.0719014e-01   4.1184079e-02
  1.3850099e+00   2.7885789e-01
 -1.8787756e+00   6.2331870e-02
 -2.7114320e-01   3.2205823e-01
  2.9069662e+00   6.6020817e-02
  8.1688046e-01   8.6551048e-02
 -1.1834958e-01   2.9928902e-01
 -1.8324552e-01   2.9651791e-01
 -1.0408852e-02   1.3581653e-01
 -3.3283234e-01   3.7128839e-01
  1.3188372e+00   1.2436525e-03
  5.2364987e-01   2.0735422e-03
  5.8450627e-01   2.4576860e-03
 -6.3178408e-01   1.5884944e-03
 -3.3328738e-02   4.7350980e-02
  3.8060617e+00   1.5182158e-03
  1.8912805e+00   2.6111102e-03
  1.4219478e+00   2.4579449e-03
 -2.5422573e+00   2.7908967e-03
 -8.5952990e-03   2.4820424e-03
 -1.6619847e+00   3.9306905e-02
 -2.2141506e-01   4.6619020e-02
  1.5133197e+00   8.8171158e-03
 -8.3649158e-01   2.0624893e-02
 -1.8542676e+00   4.8750259e-02
  2.6608245e+00   4.5943685e-02
 -8.3381927e-01   1.5682874e-02
 -6.7919838e-01   1.3940735e-02
 -2.9592206e+00   5.9233859e-02
  1.8279487e+00   4.3721847e-02
  1.2983454e+00   7.4438661e-02
  7.0281547e-01   4.4658851e-02
  9.8403144e-01   2.3175651e-02
  3.2872415e+00   2.6162010e-02
  2.6996195e-01   3.0153941e-02
 -1.7467611e-01   2.0777959e-02
  1.1762667e+00   5.4974593e-02
  1.0473819e+00   6.3789718e-02
 -4.4169223e-01   3.2802824e-02
  6.6196603e-01   1.2900083e-01
  1.2574737e+00   3.3771377e-02
  3.1824753e+00   5.4513689e-02
 -1.6881771e+00   2.1370037e-02
 -2.3188765e+00   3.6361046e-02
  4.3931106e-01   2.8637365e-02
  1.0709738e+00   1.0813946e-01
  3.7023228e-01   6.4354375e-02
  2.3964558e+00   1.7459764e-01
 -1.0897858e+00   3.8090546e-02
  4.0728307e-01   4.2711366e-02
  5.5301702e-01   3.8458440e-02
 -8.3285171e-01   2.6922011e-01
 -2.4455934e+00   5.9116237e-02
  2.6136358e+00   1.0071617e-01
  1.3586725e-01   1.6527975e-01
  1.5678155e+00   5.3181592e-02
  2.3765042e+00   1.6990706e-01
 -8.4688514e-01   1.3810119e-01
  3.5392923e+00   1.5761617e-01
  2.0731306e-01   1.4867234e-01
  1.1930515e+00   1.2355689e-01
 -1.8516612e-01   4.4627104e-02
 -2.3392425e+00   8.0351055e-02
  5.6083035e-01   4.4736553e-02
 -1.0945941e+00   1.0292793e-01
 -3.0754772e-01   1.9632873e-01
 -4.0117335e-01   5.0715722e-02
  4.8927233e-01   5.5967629e-02
 -1.9957522e-01   1.8342221e-01
 -1.0405961e+00   1.6315209e-02
 -2.4609433e-01   6.5417297e-02
 -5.2167314e-01   4.8037391e-02
 -1.4982210e+00   2.7796096e-01
 -5.0969720e-01   2.2499233e-01
  2.6297390e-01   6.0168050e-02
 -1.0023888e+00   7.5633951e-02
 -5.7306772e-01   2.6813246e-02
  7.1209669e-01   1.9757852e-01
 -1.7697709e+00   3.2931756e-02
 -4.5008597e-01   1.9950350e-01
 -4.7810638e-01   1.2155228e-01
  1.0368532e-01   3.0103901e-01
  4.3950401e-02   4.3448616e-02
 -1.7305961e+00   3.5894830e-02
  3.9632079e-01   1.0053661e-01
  9.2590261e-01   8.2007542e-02
 -1.1206691e+00   6.9617204e-02
  1.7683767e+00   1.7972758e-01
 -2.4452128e+00   1.6862352e-01
  5.2554989e-01   1.2122070e-01
  1.7306828e+00   1.1670028e-01
  3.0696076e-01   7.8063153e-02
  1.0849324e+00   1.8493804e-01
 -2.4892657e+00   1.5974189e-01
  1.4685380e+00   8.4391102e-02
  2.4478330e-01   6.1327316e-02
 -1.6314971e+00   1.8677495e-01
 -2.2807391e+00   8.9827336e-02
 -3.3129990e+00   1.4147633e-01
  2.1714833e-01   1.0728635e-01
 -3.7960622e+00   5.6655183e-02
 -9.0451247e-01   5.5322532e-02
  1.4106678e+00   7.9379499e-02
  4.5288494e-01   1.5966737e-01
 -8.7314808e-01   3.0758487e-02
 -7.3139526e-02   1.8899021e-01
 -9.6354306e-01   5.6099214e-02
 -7.9084300e-02   2.4585599e-02
 -1.4095956e+00   3.0907288e-02
  1.9961772e+00   1.7480534e-01
 -2.1036963e+00   2.7852377e-01
 -4.5100859e-01   3.5430241e-01
 -5.8427906e-01   1.4356911e-02
 -2.6136377e-01   2.5562191e-01
  1.5472977e+00   1.7995775e-01
  2.5645118e+00   1.2715907e-01
  1.4857670e+00   9.7124904e-02
  1.2030151e+00   5.9933752e-02
  6.7344564e-01   1.7958626e-01
 -2.6162192e-01   3.9663240e-02
 -1.2612630e+00   9.4919942e-02
  1.2435272e-01   2.4638755e-02
 -2.2104208e+00   6.9287419e-02
 -2.6083689e+00   8.2257770e-02
  1.2638540e+00   8.0586307e-02
  1.4795276e+00   4.5966592e-02
  7.2303659e-01   1.9353626e-02
 -2.9231796e-01   6.3457482e-02
  8.0147874e-01   1.2229794e-01
 -2.0192887e-01   2.1265434e-01
 -1.6410840e-01   2.7201766e-01
 -1.9689548e+00   1.2200634e-01
  2.0297604e+00   9.5155999e-02
 -1.9297452e+00   4.8570074e-02
  3.8332424e+00   7.4645355e-02
 -1.2714530e+00   1.5409561e-01
  7.1639907e-01   6.0634501e-02
 -1.7830549e-01   4.6482600e-02
  2.1099086e+00   4.5803979e-02
  4.2065632e-01   1.2069074e-01
  2.0711830e+00   8.0948509e-02
 -2.6761014e+00   3.8093705e-02
 -2.2654115e-01   8.2548998e-02
 -4.2855406e-01   9.5121704e-02
  6.2450582e-01   3.7649442e-02
 -8.2935780e-01   2.8474569e-01
  2.2942412e-01   2.0326357e-02
  3.8753831e-01   4.8155695e-02
  5.7461882e-01   1.1424477e-01
 -9.5471650e-02   2.7623594e-01
  2.9282293e+00   6.6542298e-02
  4.9067265e-01   3.6927592e-02
  2.3710480e+00   1.3595012e-01
  2.3427541e+00   8.3517343e-02
 -1.7792503e+00   3.8285747e-02
  3.3619635e+00   9.0776771e-02
 -1.2420284e+00   3.5059020e-02
  7.6710388e-02   1.6217293e-01
  7.0965022e-01   1.8805739e-01
 -2.0803366e+00   3.0173504e-01
  2.5310073e+00   7.3003396e-02
  1.4962546e+00   4.8366603e-02
  3.8489506e-01   1.0822745e-01
  1.6357559e+00   8.1972741e-02
  1.5283850e+00   1.0200856e-01
 -1.7859659e+00   2.6218865e-02
  5.9181035e-01   3.5240944e-02
  8.0681914e-01   1.1848568e-01
  1.1221162e+00   3.2255813e-01
 -1.9693431e-01   2.3233974e-01
  1.6854590e+00   4.7904747e-03
  4.1173574e-01   5.9059884e-02
  2.7226463e-01   2.2588983e-02
 -2.6020710e+00   4.2674370e-02
  2.4430776e-01   4.3671783e-02
  1.5900968e+00   5.0797532e-03
 -1.1777054e+00   8.3975447e-03
 -3.5306063e-01   8.5283620e-03
 -1.6361389e+00   1.9725868e-02
 -2.9109988e-01   5.6269774e-03
 -1.3724609e-01   3.6440775e-02
  9.7974259e-01   6.9851466e-02
 -1.1024287e+00   4.3244749e-02
 -8.6894941e-01   6.0208451e-02
 -4.2734864e-01   1.5887596e-02
  2.1162990e-02   5.0902251e-02
  2.3027682e-01   6.1873119e-02
 -1.2764405e+00   1.2034007e-01
 -6.0237113e-02   2.4600431e-02
 -2.0976281e+00   5.2897990e-02
  1.2376542e+00   2.1653291e-02
 -3.6823332e+00   3.6257789e-02
  8.6500984e-01   5.0920643e-02
  3.7166199e-01   9.5173523e-02
  5.3058463e-01   5.0295901e-02
 -3.1795981e+00   6.1373413e-02
 -1.4541343e+00   1.0032926e-01
 -7.4409252e-01   1.1630549e-01
 -2.4908200e-01   6.0856957e-02
  1.4838272e+00   4.0702306e-02
 -2.9159884e+00   3.2784868e-02
  3.0274090e-01   8.0248795e-02
 -1.2449868e+00   1.4704467e-01
 -7.9571491e-01   1.2064137e-01
 -3.1836388e+00   3.3525251e-02
 -1.4835902e+00   2.3481405e-01
 -6.8894871e-02   1.2825072e-02
 -1.0848786e+00   9.8605774e-02
  1.2383134e+00   7.3656827e-02
 -6.1323500e-01   3.1414591e-02
  9.1536129e-01   6.6425085e-02
 -1.4126572e-01   8.1603713e-02
  3.5769506e+00   8.1637673e-02
  3.1659954e+00   5.2811030e-02
  1.4991544e+00   1.5752631e-01
  1.3540477e+00   2.8150178e-02
 -8.8043702e-01   3.5690352e-02
 -3.0237389e-01   6.0521711e-02
 -1.1385548e+00   3.8313314e-02
  1.1083996e+00   5.3261321e-02
 -8.7152040e-01   4.0421244e-02
 -3.1557617e-01   6.9886833e-02
  5.4538029e-01   7.9515167e-02
 -2.2486132e-01   2.0571136e-01
 -5.8369692e-03   1.5706082e-01
  2.1584868e+00   1.4284764e-01
 -2.1595051e+00   3.6248408e-02
  1.0422527e+00   7.1995191e-02
 -1.7653924e-01   1.3205379e-01
 -9.3954945e-01   1.9883376e-02
 -1.8879142e+00   9.0238839e-02
 -1.9252193e-01   2.0106025e-01
 -1.0135361e+00   5.0582718e-02
  7.7958554e-01   1.1712614e-01
 -2.0171609e+00   8.3056368e-02
 -4.2496520e-01   8.4614977e-02
  4.2696318e-01   1.3240619e-01
  6.2522066e-01   4.7230575e-02
  1.3582892e+00   1.9724089e-01
 -6.8794632e-01   1.1798680e-01
  1.1878880e+00   1.6990572e-01
 -2.5072892e+00   3.0577210e-01
 -5.4097903e-01   1.3203092e-01
 -5.1871169e-02   4.3296609e-02
  3.2401755e-01   9.7761884e-02
 -4.0653729e+00   3.1788379e-02
 -2.0010552e+00   9.4121158e-02
 -1.1615451e-01   6.8796545e-02
 -3.7082496e-01   2.8267786e-01
  7.5308698e-01   4.3996595e-02
  2.1513286e+00   7.0116207e-02
 -1.4383130e+00   6.3762277e-02
  4.0583401e+00   1.5136455e-01
 -5.3348368e-01   2.4560723e-01
  7.5100738e-01   1.1144198e-01
 -4.4121230e-01   7.3876537e-02
  6.3910383e-01   2.2104116e-01
  2.7326488e-01   3.5613336e-02
 -3.4504657e+00   1.7086934e-01
  1.2752989e-01   1.8309869e-01
 -2.3765364e-01   3.1517763e-02
 -2.4136330e-01   2.6780862e-02
  9.5687485e-01   5.3660363e-02
  1.0312204e+00   8.3774507e-02
 -1.8607685e-01   1.1004994e-01
 -2.5532835e+00   1.2377422e-01
 -1.7893735e-01   1.1533789e-01
  1.2116456e+00   6.0020879e-02
  4.2055246e-01   1.0264187e-01
  3.7423697e-01   1.1394608e-01
 -7.8189544e-02   6.1278712e-02
  5.3758758e-01   6.2678576e-02
  2.3861818e-01   4.3690383e-02
  2.4795370e+00   1.9178690e-01
 -3.2881179e-01   1.6212405e-01
 -1.3291881e+00   2.0119910e-01
  6.6602319e-01   1.2782443e-01
 -2.6639065e-01   1.3384260e-01
  8.6825514e-01   8.2622305e-02
  1.6780872e+00   2.9175609e-01
  1.0179733e+00   3.4022845e-02
 -3.3405185e-01   5.0650906e-02
 -2.1319626e-01   4.3703016e-02
  6.5129709e-01   5.0440483e-02
 -1.7894050e-02   8.1965715e-02
  3.6253658e-01   4.0919382e-02
  1.9175062e+00   1.1953733e-02
 -1.1215458e+00   1.9925216e-01
 -1.5083544e+00   4.4234332e-02
  5.8461380e-01   7.4389674e-02
 -1.9490770e+00   8.1421159e-02
 -1.2477546e+00   6.5878727e-02
  1.6950759e+00   1.2171353e-01
  2.5489125e-01   4.5291897e-02
 -5.5911577e-01   1.0927999e-01
 -1.5423993e+00   1.4013679e-01
 -2.7372661e-01   1.2661722e-01
  6.6323948e-01   2.7743894e-01
 -2.2707984e+00   7.2861560e-02
  6.2863439e-01   4.8528302e-02
  1.2922410e+00   6.1210077e-02
  9.2641562e-03   1.2402144e-01
 -7.8747320e-01   5.3975567e-02
  8.7195164e-01   9.1075823e-02
  2.2066867e+00   3.9354011e-02
  7.9824901e-01   9.8149315e-02
 -3.0108437e-01   1.1350761e-01
 -9.0181446e-01   4.4471389e-01
  2.0893447e+00   5.4034349e-02
  1.6091015e+00   4.6575390e-02
 -1.3471423e+00   8.3731353e-02
  2.6952738e-01   5.5131312e-02
 -2.2342701e+00   7.3488690e-02
 -5.2474004e-01   2.2067090e-02
  1.4404385e+00   2.5629811e-02
 -1.6117437e+00   9.1207087e-02
  2.3166904e+00   1.2459085e-01
 -4.1991776e-01   2.2720917e-01
  2.0309279e+00   2.9043388e-01
 -2.9362776e+00   7.1958989e-02
  4.3701464e-01   1.6335598e-01
  1.4594119e+00   9.3800522e-02
 -5.2156430e-01   1.3786507e-01
 -3.4045705e-01   9.5151022e-02
  1.6321913e+00   1.3242422e-01
 -1.3725950e+00   1.3023938e-01
 -2.6394258e+00   6.1750378e-02
 -2.7644309e-01   5.2478001e-02
 -4.3035582e-01   7.4932061e-02
  1.5445570e+00   1.7683703e-01
 -7.0852965e-01   1.2324104e-02
 -1.7273237e+00   3.4831034e-03
  3.1921557e-01   2.8676230e-02
  3.5929707e-01   5.5657189e-02
  5.4980624e-01   2.7206650e-02
 -1.2216938e+00   4.6145320e-03
 -2.4415660e+00   1.5800644e-02
 -7.8149015e-01   7.7859461e-03
  3.1714717e-01   9.3166139e-03
  4.7870895e-01   7.3530059e-03
  2.5085222e-02   3.5409462e-02
  3.1008115e+00   9.9112019e-02
 -5.0265223e-01   4.2400662e-02
  1.5283658e-01   2.0729573e-01
  1.1063133e+00   4.5441564e-02
  2.7458799e+00   8.3912261e-02
 -2.3198371e+00   1.2320050e-01
  1.5310603e-01   1.7623578e-01
  1.0965492e+00   2.1078192e-02
  1.6665955e-01   3.0684365e-02
  2.2934625e+00   5.0199945e-02
  2.5446897e+00   4.2255566e-02
  6.8854064e-01   8.5291915e-02
  6.1706495e-01   6.3920528e-02
  4.2638519e-01   4.3992475e-02
  5.2334267e-01   6.5004915e-02
  4.3798667e-01   1.4111552e-01
  5.2646077e-01   6.2029544e-02
  8.5977441e-01   1.0331156e-01
 -6.2844133e-01   1.2667577e-01
 -1.1054573e+00   2.4802424e-02
  1.6846730e+00   3.2488938e-02
 -1.8575130e+00   6.5653287e-02
  2.3054349e+00   4.1615855e-02
  2.2134724e-01   1.0172305e-01
  1.5381639e+00   5.8868881e-02
 -2.5492704e-01   7.4532233e-02
 -2.6491749e-01   2.6941052e-01
 -7.5788730e-01   6.0136747e-02
  7.1525317e-01   9.1528416e-02
 -4.5830551e-01   8.8562846e-02
  9.2064315e-01   8.6568236e-02
 -3.1671326e+00   2.5509477e-02
 -1.2144454e+00   1.2156908e-01
  2.9510409e-02   7.3149748e-02
  4.5683882e-01   9.0576425e-02
 -1.1413091e-01   8.0976121e-02
  9.3340531e-02   2.7869841e-01
  1.1707592e+00   8.2683146e-02
  6.6920966e-02   1.1908238e-01
  1.7384223e+00   6.3660719e-02
 -8.3460361e-02   2.0749325e-02
 -1.4745362e+00   4.0720496e-02
 -1.3290942e+00   1.0566902e-01
 -4.4019297e-01   3.8390208e-02
  1.3276910e+00   9.8706082e-02
  1.9124392e+00   1.9878143e-02
  6.8669939e-01   8.2319170e-02
 -3.1977531e-01   1.5572414e-01
 -3.0688924e-01   8.2265027e-02
  2.2191110e+00   5.1403206e-02
  3.1517808e+00   4.6949625e-02
 -1.1778090e+00   1.9611384e-01
  3.1885669e+00   6.5676652e-02
 -1.4795741e-01   6.1546773e-02
  7.8389770e-01   1.1096681e-01
  1.7404281e+00   1.1991443e-01
 -2.0849030e+00   1.3990688e-01
  1.5487945e-01   7.6937795e-02
  7.9670805e-01   8.9623019e-02
 -1.2114182e-01   1.7309010e-01
 -1.5492144e+00   2.7816343e-01
  1.7817976e+00   1.0596129e-01
 -1.1730849e+00   1.5447499e-01
 -6.8514085e-01   1.6262147e-01
 -2.7886742e-01   1.4342666e-01
 -4.2577034e-01   1.8396247e-02
 -2.3451707e+00   3.5250675e-02
 -7.0353991e-01   1.5559524e-01
 -7.2880462e-02   4.1292157e-02
 -9.3847758e-01   8.4943116e-02
  2.7826571e-01   1.4710923e-01
  1.8890440e-01   3.5176553e-02
 -7.1353233e-01   6.9391958e-02
 -3.7810769e+00   1.2459858e-01
  2.1406074e+00   5.1712926e-02
  1.3553944e-01   1.4503032e-01
 -1.8016393e+00   3.0209595e-01
  1.2741743e+00   1.3065816e-01
  1.1710787e+00   3.6558162e-02
  3.6471310e-01   3.9271072e-02
  1.6657385e+00   1.8444192e-02
 -1.4148169e+00   2.5538394e-01
 -5.5948037e-01   1.0342006e-01
  1.1599615e+00   2.2861337e-02
 -3.7210527e-01   7.7091508e-02
 -4.4466946e-01   9.4194926e-02
 -2.6361546e-01   1.0633306e-01
 -1.3289727e+00   3.5908666e-01
  2.1058838e+00   4.1559502e-02
 -2.2082347e-01   2.7162995e-02
  3.8164020e-01   2.0533903e-01
 -6.0360026e-02   1.3096811e-01
  2.2897854e+00   5.8875922e-02
 -4.8220232e-01   1.1148575e-01
  1.9852892e-01   8.4343828e-02
  1.0733312e-01   1.0146356e-01
 -7.2940397e-01   3.7602738e-02
  3.8804799e-01   1.7450140e-01
  1.7248656e+00   7.9675645e-02
  2.2992323e-01   3.1969842e-02
  1.3103645e+00   2.0179622e-01
  2.6305857e+00   3.0096678e-02
  9.2078286e-01   5.0882529e-02
  2.0333569e-01   3.8383868e-02
  1.5600516e-01   1.6307601e-01
 -1.3122905e+00   3.5908741e-01
 -1.5663698e+00   1.3966163e-01
 -9.7002798e-01   1.8878233e-02
 -2.5273900e+00   2.0688903e-01
  1.5041230e+00   6.7481086e-02
 -6.4184237e-01   9.7919799e-02
 -3.4105210e+00   5.5794645e-02
 -2.1650451e-01   5.0866861e-02
 -2.5063270e-01   6.9012895e-02
 -3.2936153e+00   1.9566269e-01
 -9.2665583e-02   8.6565427e-02
  5.1911432e-01   2.1176095e-01
 -7.3736943e-02   1.0173307e-01
 -3.1258802e+00   1.3924196e-01
 -6.3264513e-01   1.0966899e-01
  1.3984659e-01   2.7302685e-01
  3.3649978e-01   6.4153798e-02
  1.5728468e+00   4.3541189e-02
 -3.8110021e-01   2.0914783e-01
  4.5722279e-01   1.2233947e-01
  8.8185191e-01   1.0393833e-01
 -1.7607042e+00   8.3670281e-02
  1.2211672e+00   4.3161076e-02
  4.9703026e+00   6.9808699e-02
  8.8508643e-02   3.0056351e-01
  4.7805399e-01   1.3603280e-01
 -3.9893922e-01   4.8515928e-01
  2.7596867e-01   2.4964499e-01
  3.8021853e+00   8.2205735e-02
  5.3585343e-02   2.2692855e-01
 -1.1010725e+00   3.0504543e-01
 -6.4610308e-01   4.1055348e-02
  4.0922782e-01   3.1956278e-02
 -9.5330423e-01   2.9221868e-02
 -9.0673840e-01   2.3297402e-01
 -1.3613269e-01   5.2515000e-02
  2.5639680e-01   2.0192742e-01
  2.8710575e+00   2.0057013e-02
 -8.5948330e-01   1.8231739e-01
 -7.6515824e-02   4.9652983e-02
 -3.2110462e-01   5.1163290e-02
  5.0560796e-01   1.2001432e-01
 -1.0958564e+00   1.3438620e-01
  9.7888172e-02   6.9073118e-02
  8.4192610e-01   5.2695270e-03
  1.7690941e+00   1.5161819e-02
  9.9370116e-01   8.0808617e-02
 -5.4170305e-01   7.8086309e-02
 -1.3681976e+00   4.6008136e-02
  2.7342410e+00   3.9998651e-02
  5.9259176e+00   2.3519142e-02
 -3.0128183e-02   4.7311679e-02
  2.3782256e+00   3.1113675e-02
  6.6749054e-01   2.8798001e-02
  1.9035535e+00   3.1211866e-02
 -1.9627881e-01   5.3313207e-02
  2.5004637e-01   1.2203570e-01
  7.6777101e-01   6.2811948e-02
  2.0420940e+00   3.9189797e-02
  6.8904734e-01   4.2383142e-02
  1.2991036e+00   4.5887429e-02
  2.3494704e+00   7.8930095e-02
 -3.7235704e-01   1.8875754e-01
  1.4624402e-01   1.2768075e-01
 -2.2093167e+00   3.8263887e-02
  6.2685198e-01   4.9252823e-02
  1.0101854e-01   4.5779463e-02
 -1.2592038e+00   4.0601614e-01
 -1.0348743e+00   7.7288635e-02
  3.1673345e-01   9.2671543e-02
 -1.2665287e+00   6.8701349e-02
  8.7651795e-01   8.7639026e-02
  5.3821266e-02   5.0619945e-02
  1.9480214e-01   1.6903335e-01
 -1.7141892e+00   6.3544795e-02
 -6.0911071e-01   2.0726046e-01
  5.0678343e-01   1.5293299e-01
 -6.4250052e-02   1.0024909e-01
 -8.0339843e-01   4.2917460e-02
 -4.0766367e-01   6.0072988e-02
  2.4612150e-01   5.4260083e-02
  5.1846087e-01   3.4915444e-01
  2.0496225e-01   3.1893024e-01
 -8.0158097e-01   2.6132163e-01
 -8.4474564e-01   5.9643887e-02
 -4.8781335e-01   1.5344031e-01
 -6.3221157e-01   2.1812582e-01
 -2.8693326e+00   4.5291137e-02
  1.5778229e-01   3.0352708e-02
  9.3783242e-01   6.1804779e-02
  9.8556116e-02   1.5332615e-01
  1.1639637e+00   5.5092797e-02
  1.1625372e+00   1.2746917e-01
  1.4532399e+00   1.0357455e-01
  2.4759765e+00   1.5037049e-01
 -1.7055545e-02   2.2659175e-02
 -2.3192368e-01   1.4915992e-01
  7.2535473e-01   4.8619217e-01
  2.6560789e-01   1.0909457e-01
 -1.1125692e+00   7.0940070e-02
  8.0111098e-01   5.4753505e-02
 -8.1992567e-02   3.0178663e-01
 -4.5598587e-01   2.2569048e-01
  1.0734050e+00   1.3551044e-01
  1.0173235e+00   1.3350460e-01
  1.3690665e+00   8.4629595e-02
  8.2118154e-01   2.2256693e-01
 -9.3971026e-01   1.2136575e-01
 -3.8034645e-01   1.6713946e-01
 -2.3951180e-01   2.1416070e-01
  2.5205040e-01   6.3733831e-02
  1.8689091e+00   1.0466044e-01
 -1.3058330e-01   1.1100519e-01
 -7.6780981e-01   2.1168447e-01
 -1.2638061e+00   5.0853699e-01
  1.9913703e+00   6.3832879e-02
 -2.8395076e+00   9.9327311e-02
 -1.1417235e+00   4.1164100e-01
  7.3685437e-01   1.8500580e-01
  8.9866720e-02   1.9193539e-02
  2.5331734e-02   7.7243060e-02
  3.7904903e-01   6.5277763e-02
 -5.6598884e-01   8.8823229e-02
 -2.3856745e+00   1.0751359e-01
 -5.1390797e-01   1.0020879e-01
 -9.7410604e-02   1.0609806e-01
 -4.3617445e-01   1.3317998e-01
  1.9968383e-01   1.9087800e-01
  5.0128317e-01   3.1721819e-02
 -2.2540283e+00   1.9758335e-01
 -1.7740358e+00   1.0680770e-01
  9.9495953e-01   3.5313234e-02
 -5.0221878e-01   1.9726995e-01
  1.6769899e+00   5.2293077e-02
 -4.4030422e-01   1.1433892e-01
 -1.4746177e+00   1.1568303e-01
 -1.5875700e+00   1.8310480e-01
  3.0708370e-01   8.4697805e-02
 -1.1665616e+00   4.8302716e-01
  1.2878692e+00   8.9594960e-02
 -1.9636855e+00   1.0438427e-01
 -1.3197834e+00   1.6603602e-01
 -5.8410054e-01   2.3482145e-01
  1.1945084e+00   5.0311599e-02
 -3.5252452e-01   6.7050532e-02
  9.5633262e-01   4.6959903e-02
  9.9911547e-01   6.9097012e-02
 -5.2726644e-01   2.0482986e-01
  1.2755293e-02   2.0589025e-01
 -2.3654558e-01   2.5667465e-01
  2.0116217e+00   1.3367215e-01
  2.3653135e+00   7.6769598e-02
  9.4518906e-01   1.6904747e-01
  5.1639748e-01   7.6100037e-02
  2.3700216e+00   5.1377892e-02
  1.5298954e+00   1.2323999e-01
 -2.0561640e+00   3.1826865e-02
  1.9147613e+00   9.6590340e-02
 -3.2973654e+00   1.1405580e-01
 -4.5114517e-01   7.4938305e-02
 -9.4565046e-01   1.3101952e-01
  1.6646430e+00   8.8849835e-02
 -1.7922677e+00   3.0651413e-02
  3.2222089e-01   1.8456511e-02
  4.0398780e-01   8.2255810e-02
  1.7873691e-01   4.6093278e-02
  2.9743526e-02   1.0017513e-01
 -2.9506817e-01   4.5007974e-02
 -1.3756588e+00   1.3067670e-01
  1.3733748e+00   9.5840544e-02
 -3.7094574e+00   1.1479032e-01
  5.8126771e-01   1.3620542e-01
  6.8550563e-01   1.6299933e-01
 -1.4069135e+00   1.0737614e-01
  2.1155841e+00   1.1193161e-01
  1.0729507e+00   4.9031015e-02
  4.1827652e-01   1.8499444e-01
  3.0813453e+00   1.6091810e-01
 -2.1940556e+00   1.1200415e-01
  7.8652793e-01   5.9679557e-02
 -3.1413813e+00   1.5291861e-01
  2.2586669e-01   6.9098487e-02
 -4.0616488e-01   1.2643446e-01
 -8.2761681e-01   7.7342048e-02
  5.3762138e-01   8.8076264e-02
  5.5030155e-01   1.1646900e-01
 -4.9253130e-01   1.4084537e-01
 -7.3372865e-01   8.4586032e-02
  1.0548856e+00   1.6523115e-02
  4.9711812e-01   5.7308596e-02
 -8.8849805e-02   2.0177400e-02