  6.4871067e-01   1.8593004e-01
  4.2885247e-01   1.2294067e-01
 -4.3097696e-01   6.3500628e-02
 -1.4083268e-01   9.8198906e-02
  2.0601520e-01   8.8191710e-02
  8.1255727e-02   8.6591974e-02
 -9.5789438e-01   4.3848906e-02
  8.8105047e-01   1.1887991e-01
 -3.7517771e-01   1.8826157e-01
  1.2625816e+00   2.4130262e-01
  2.6753678e+00   4.4811554e-02
  1.1561630e+00   1.4779863e-01
  1.0029566e+00   9.7169429e-02
  2.7674961e+00   3.9168589e-02
  2.9368064e-01   1.0866097e-01
  1.2798567e+00   5.4662485e-02
 -7.8476197e-01   7.3580779e-02
  7.4321258e-01   2.4104774e-01
 -1.0304101e+00   1.1303639e-01
  3.0156794e+00   6.9959261e-02
 -6.2748808e-01   8.4312558e-02
  1.9968650e+00   4.9825188e-02
  6.3560516e-01   2.4992591e-01
  3.7535539e-01   3.4163650e-02
  5.1714784e-01   4.7175985e-02
  9.5431536e-01   3.5022452e-01
 -8.9715242e-01   2.7118689e-01
  1.0994819e+00   7.7555843e-02
 -9.5178592e-01   5.3398792e-02
 -1.2243428e-01   1.2163378e-02
  4.1465324e-01   5.0296646e-02
 -1.8580099e+00   2.0171324e-02
 -9.1319335e-01   2.3743371e-02
 -5.8619028e-01   5.1827230e-02
  1.0829504e+00   4.7110029e-02
  8.0880642e-01   3.3346713e-02
  2.3103490e+00   3.2407980e-02
  9.1545540e-01   4.9063414e-02
 -2.7755165e-01   3.3350218e-02
 -2.6496000e+00   1.0878423e-02
 -1.9250226e+00   7.1749546e-02
 -2.9019457e-01   1.0681386e-02
  4.0066856e-01   1.2829515e-01
 -1.0309460e+00   3.5347726e-02
 -3.7302572e-01   4.9512129e-02
 -1.0851328e+00   4.6640422e-02
  1.5988371e+00   1.7796271e-02
 -4.8081222e-01   4.7174864e-02
 -4.0939360e+00   4.8662577e-02
 -1.9344537e-01   6.4220145e-02
 -1.0281891e+00   1.0719937e-02
  1.2009780e+00   7.0250183e-02
 -6.3872296e-01   3.3718586e-02
  1.1575919e+00   7.7256553e-02
 -5.8174878e-04   7.0508361e-02
  1.9719344e+00   1.2278517e-02
 -5.4735339e-01   1.9827034e-01
  3.5138017e-01   7.4916676e-02
  5.8192343e-01   1.0816344e-01
 -2.3513788e-01   9.5766656e-02
 -2.5399140e-01   5.4408100e-02
 -2.1063225e+00   8.4668435e-02
 -7.8636962e-01   1.0984281e-01
  1.3424264e+00   1.5732067e-02
  2.2764375e+00   1.0492531e-01
 -1.5453600e+00   7.0902646e-02
 -8.3600141e-02   4.4779874e-02
  9.7068799e-01   1.7144668e-01
 -1.7971365e+00   6.6536896e-02
 -5.5114049e-01   2.5751370e-01
  3.1001055e+00   8.2955241e-02
  7.8930169e-02   1.8230727e-01
 -2.5632113e-01   1.6300224e-02
  6.4101025e-02   3.6323637e-02
  1.2914875e+00   1.0540193e-01
  1.3960131e-02   4.4017542e-02
  2.7028463e+00   1.2625206e-01
 -1.6792481e+00   1.1765198e-01
 -2.8853598e+00   2.3350449e-01
  2.1333714e-01   2.4100612e-01
 -2.1457894e+00   6.6305675e-02
 -9.3061335e-02   1.0720203e-01
  9.5647901e-02   1.2149168e-01
 -2.4861024e-01   1.2883085e-01
 -6.2397158e-01   1.1407557e-01
  1.9154896e-01   3.4921966e-02
  1.0636458e+00   1.3187292e-01
 -2.2057540e+00   3.4408666e-02
 -9.5345956e-01   3.7005775e-02
 -6.8688482e-01   4.7224876e-02
 -1.2816962e+00   1.0019538e-01
  9.1260590e-02   1.0608911e-01
 -1.5549241e+00   7.7835836e-02
 -2.0237732e+00   8.4676534e-02
 -1.7790651e-01   2.5866147e-02
  1.1156753e+00   7.6299705e-02
  5.8947355e-01   5.2832007e-02
  1.2246993e+00   7.8517072e-02
 -1.5518794e+00   4.0701240e-02
  5.0191826e-01   8.4385291e-02
  8.6303025e-01   1.1465682e-01
 -8.6500025e-01   6.7596078e-02
 -9.3346739e-01   2.4478860e-01
 -3.9387219e+00   5.2126735e-02
  2.8557959e-01   2.7732968e-02
  2.5558355e+00   7.5448610e-02
 -9.0361869e-01   2.2045526e-01
  1.4190015e-01   9.1613501e-02
  1.7163833e+00   4.0597603e-02
 -2.0691726e+00   9.5314711e-02
  2.5234595e-01   5.3449009e-02
  4.4308639e-01   5.5318218e-02
  2.6373222e-02   1.1664280e-01
 -3.4444571e-02   2.0825748e-01
 -2.5202196e+00   8.6612113e-02
  1.6776972e-01   1.4309601e-01
  3.2535074e+00   8.0170833e-02
 -4.5783505e-01   9.1803364e-02
  1.7798417e+00   3.7584905e-02
  3.6844302e-02   7.8306608e-02
  1.1225667e+00   2.4371907e-02
  4.9618286e-01   6.0641733e-03
 -2.7772123e-01   3.2306258e-02
 -4.9794447e-01   1.3011478e-02
 -9.0772289e-01   2.1394242e-02
  3.7008137e-01   2.4655629e-02
 -2.5746238e-01   3.7574973e-02
 -3.8974443e-01   9.3474509e-03
  1.8698320e+00   8.8604344e-03
 -4.7367874e-01   1.3907793e-02
  1.5606574e+00   5.8130179e-02
 -3.1665805e-01   4.1351113e-02
 -1.3299793e+00   3.7716083e-02
 -1.0541630e+00   5.5423301e-02
 -4.3706280e-01   2.8555900e-02
  1.0526735e+00   6.5313958e-02
 -2.5269332e+00   1.0736503e-01
  5.9447891e-01   5.1782142e-02
 -3.4740180e-01   9.5864192e-02
 -1.5818485e+00   5.5963427e-02
  2.2567801e+00   1.7058307e-02
 -4.7055787e-01   2.9803297e-02
  8.1336534e-01   2.5182871e-02
 -1.5964607e+00   2.6457485e-02
 -5.4094326e-02   2.7930070e-02
 -2.6140752e+00   1.1335760e-01
  2.8595567e-01   8.9863002e-02
 -6.6202813e-01   3.6829364e-02
  2.9212501e+00   1.6794372e-01
  1.7576355e+00   1.1023323e-01
 -1.1025081e+00   1.0935209e-02
 -3.4356332e-01   9.0029566e-03
  1.7628673e+00   1.5079412e-01
 -3.9596591e+00   5.2715752e-02
 -8.2140291e-01   5.1137772e-03
 -7.6315612e-01   8.5233600e-04
 -8.0138659e-01   2.1454303e-03
 -3.5313526e-01   1.6965537e-03
 -1.9088980e+00   7.5760507e-04
 -1.0936422e+00   2.4323908e-03
  1.1162941e+00   1.1663301e-02
 -6.2331641e-01   1.7915003e-02
 -1.0866580e+00   9.9752126e-03
 -9.3760425e-01   1.9166546e-03
 -3.9598429e-01   4.6063648e-03
 -2.2920096e+00   5.6642219e-02
 -2.9461801e-01   7.4668028e-03
 -4.2987037e-01   1.6406113e-02
 -1.6625659e+00   2.4748461e-02
 -1.1282375e+00   3.6108907e-02
  1.1451520e+00   4.0689162e-03
  1.6980983e+00   4.3638069e-03
  1.6873522e-02   7.0747738e-03
 -3.6391888e+00   6.9244378e-03
  3.5891664e-01   1.3177708e-02
  1.8604785e+00   5.9794979e-03
  2.9247181e+00   1.1148336e-02
  8.4053737e-01   1.2028579e-02
 -2.9012146e+00   7.8604938e-03
  1.2069594e+00   2.1981467e-02
 -1.9909592e+00   7.9638083e-03
  8.9274091e-01   3.2565133e-03
  1.3235875e+00   8.5590566e-03
  1.1321102e+00   4.8103854e-03
 -6.8746045e-02   1.2566341e-02
  3.4547160e+00   9.7086802e-03
 -3.5534825e+00   1.0678708e-02
  4.3124356e+00   4.5231164e-02
 -2.6971560e+00   2.2589657e-02
  9.8649633e-01   7.3072053e-02
 -2.0835710e+00   1.5434019e-02
  1.9612205e+00   1.4458407e-02
 -2.5181465e+00   1.9703034e-02
 -2.4997562e-01   6.1535598e-03
 -2.4232532e-01   7.9446873e-03
  7.7498394e-01   5.9181008e-02
  1.0410575e+00   1.6031787e-02
 -6.5687805e-01   1.3948860e-02
  2.4308473e-01   3.6892228e-02
 -2.8069124e-01   2.1334270e-02
  1.9925175e+00   1.1925199e-02
 -1.0217874e+00   5.9908573e-03
 -1.9183594e+00   1.5497114e-02
  8.8442840e-02   7.8579979e-03
 -1.5240470e-01   1.2254215e-02
  5.2465791e-01   8.4129469e-03
  7.7112907e-01   4.7981855e-03
 -2.8382605e-01   1.3847632e-02
  1.6937020e-01   7.9684202e-03
  2.5285251e+00   2.1336071e-02
  3.1412547e+00   7.9123164e-03
 -9.4047523e-01   8.1248516e-03
  1.3740784e-01   2.3665363e-02
 -1.1191906e+00   3.4766817e-03
  6.8829906e-01   1.5568557e-02
 -2.7508602e+00   2.0041300e-02
 -3.1805348e+00   3.4435295e-02
 -8.0382013e-01   4.9800329e-02
 -1.6140252e+00   3.6710296e-02
  1.6719613e+00   5.8642372e-02
 -1.9948416e+00   1.5235646e-02
 -8.3560658e-01   2.1415707e-02
  1.5717001e-01   5.7690203e-02
  2.9763967e-01   4.6060635e-03
  1.1087329e+00   8.2844039e-03
  2.2264042e+00   1.2386420e-01
  1.6020960e-01   3.0549224e-02
  2.1811512e+00   5.0404187e-02
 -5.9020090e-01   5.2905630e-02
  7.9383886e-01   3.4795549e-02
  2.0765517e+00   2.0831784e-02
  2.5164948e+00   3.2370437e-02
 -9.1238743e-01   1.5094207e-02
  6.8227285e-01   2.5964433e-02
  7.1658909e-01   2.4046747e-02
  1.3461149e+00   1.5512424e-02
 -5.2303119e+00   3.9995052e-02
  5.0218093e-01   1.2659163e-02
  9.1291398e-01   1.1177717e-02
 -5.1877674e-02   1.0661907e-01
  9.4977492e-01   2.0899752e-02
  2.3414006e+00   1.8585792e-02
 -1.7149855e+00   1.5960697e-02
 -8.8353580e-01   2.0962378e-02
  4.0432186e+00   7.0803024e-02
  3.8264925e-03   1.2387233e-01
 -3.5860450e+00   1.7893545e-01
 -1.0923810e+00   1.9593862e-01
  1.7123486e+00   1.6960733e-01
 -2.9245677e+00   6.9009401e-02
  8.3181489e-01   8.5083060e-03
 -1.3228793e+00   1.2858812e-02
  2.5423181e-01   5.6543658e-03
  1.0706934e+00   3.7331018e-03
 -1.3463235e+00   8.2548289e-03
 -2.1599009e+00   3.5100382e-02
 -2.4569697e+00   2.4184151e-02
 -7.5177318e-01   1.0231624e-02
 -2.2955053e+00   1.0331628e-01
 -3.1183381e+00   7.3145159e-02
 -2.9405177e+00   2.8654218e-02
  6.8851751e-01   2.5059327e-02
  2.2561462e-01   2.0488007e-02
  1.0447311e+00   7.2633377e-03
 -1.2615428e+00   2.3157761e-02
 -4.5456544e-01   1.3889242e-02
  2.9002619e-01   4.2027984e-02
  2.8678076e+00   1.0950850e-02
 -1.7389400e+00   1.8114176e-02
 -3.3903427e-02   2.1984315e-02
 -1.4318069e+00   1.1526424e-02
 -8.6455387e-01   1.8848212e-02
  5.3417510e-01   1.3073262e-02
  8.4641266e-01   9.8301275e-03
  6.2148941e-01   3.3560522e-02
  3.0148253e+00   4.4158842e-02
 -1.4677595e+00   7.5067386e-02
 -2.4141774e+00   3.2791730e-02
 -4.2412046e-01   6.9813907e-02
 -3.5279578e-01   1.0690722e-01
 -2.8540783e-02   1.3899495e-01
 -1.8889877e-01   1.9098599e-01
  5.6285250e-01   5.2941319e-02
 -9.5798635e-01   6.8114214e-02
  8.0570358e-01   1.6649979e-01
 -9.9660084e-02   3.1846097e-01
 -2.4464691e-01   1.6084814e-01
  1.9743979e+00   7.3704094e-02
 -7.9041070e-01   8.7967269e-02
  1.5160927e+00   1.3744390e-01
 -3.6211812e-01   4.5883596e-02
  1.7999062e-01   2.1287894e-01
  1.1234142e+00   3.9388902e-02
  1.8342916e+00   5.2719809e-02
 -2.9199961e-01   3.4888096e-02
 -8.7225801e-01   9.2145383e-02
 -3.3168951e-01   2.0180173e-01
  1.0225058e-01   3.8108025e-02
 -1.8004456e+00   1.2431215e-01
 -7.3940343e-01   1.7315561e-01
 -8.3468860e-01   4.3893751e-02
  1.3619320e+00   2.8315419e-01
 -1.5447210e+00   6.1676342e-02
 -3.7891272e-01   3.3044255e-01
  3.1815817e+00   6.3171931e-02
  7.0745420e-01   8.5890010e-02
 -4.5875809e-01   3.0659604e-01
  1.3077389e-02   3.1287041e-01
 -2.4969499e-01   1.2881246e-01
  2.8404379e-01   3.6679679e-01
  1.3166394e+00   1.2243139e-03
  5.2895504e-01   2.2760353e-03
  5.8365804e-01   2.3278105e-03
 -6.3276547e-01   1.6607578e-03
 -1.3123806e-01   4.5222122e-02
  3.8042400e+00   1.6044730e-03
  1.8944252e+00   2.5006069e-03
  1.4188426e+00   2.4491921e-03
 -2.5485466e+00   2.8182692e-03
 -1.3804153e-02   2.6353912e-03
 -1.6138449e+00   3.7299562e-02
 -1.1896977e-01   4.9866151e-02
  1.5607414e+00   9.6311439e-03
 -8.8145375e-01   1.9653359e-02
 -1.7779126e+00   5.2203026e-02
  2.7059202e+00   4.6426922e-02
 -8.4423709e-01   1.6279882e-02
 -6.7369795e-01   1.5665406e-02
 -2.7905703e+00   5.8245789e-02
  1.7942350e+00   4.1651633e-02
  9.9379623e-01   7.4534684e-02
  6.0936373e-01   4.1903529e-02
  1.0124754e+00   2.4809731e-02
  3.3379862e+00   2.5806103e-02
  2.4698997e-01   3.0730706e-02
 -1.9947113e-01   2.1250337e-02
  1.0277004e+00   5.7293482e-02
  1.0389466e+00   6.6407233e-02
 -3.9259225e-01   3.0666659e-02
  6.7677146e-01   1.2446053e-01
  1.1650555e+00   3.3193491e-02
  3.3034921e+00   5.3511217e-02
 -1.6707213e+00   2.2704547e-02
 -2.3138156e+00   3.5770115e-02
  4.9404979e-01   2.7037738e-02
  9.0719205e-01   1.0508233e-01
  3.7901562e-01   6.3495576e-02
  1.8474400e+00   1.9022191e-01
 -1.0572870e+00   3.8697209e-02
  2.7671227e-01   4.0672582e-02
  6.3924456e-01   3.6066249e-02
 -7.0587128e-01   2.6532772e-01
 -2.5464406e+00   5.8937386e-02
  2.4257538e+00   1.0189239e-01
  5.0757635e-01   1.8475378e-01
  1.4910423e+00   5.3448010e-02
  2.5240138e+00   1.6522087e-01
 -5.7655752e-01   1.3618374e-01
  3.7375574e+00   1.5993638e-01
 -5.1347774e-02   1.4570549e-01
  9.2447591e-01   1.4006799e-01
 -1.9410378e-01   4.6579182e-02
 -2.3535538e+00   7.9593398e-02
  6.0497820e-01   5.1378220e-02
 -1.3887163e+00   1.0442988e-01
 -2.1702316e-02   1.8420924e-01
 -4.0216276e-01   5.0652158e-02
  6.8571490e-01   5.6883309e-02
 -2.4934161e-01   1.7088029e-01
 -9.9665880e-01   1.6365616e-02
 -2.9021770e-02   6.6738099e-02
 -7.6066858e-01   4.6104424e-02
 -1.7340645e+00   2.6675490e-01
  4.4279933e-02   2.1675727e-01
  2.8088763e-01   5.8143143e-02
 -9.0140694e-01   7.1852960e-02
 -5.5111700e-01   2.6117394e-02
  7.3775828e-01   1.9162485e-01
 -1.7362454e+00   3.3687968e-02
 -1.1990058e-01   1.9510332e-01
 -7.3857754e-02   1.2061193e-01
  4.0620604e-01   3.1173536e-01
  5.5830278e-02   4.3249913e-02
 -1.6348479e+00   3.8047858e-02
  3.2661948e-01   1.0001637e-01
  7.8969264e-01   8.0622524e-02
 -1.0221357e+00   7.2650567e-02
  1.9070581e+00   1.9041720e-01
 -1.9208184e+00   1.4710684e-01
  1.5322892e-01   1.2031155e-01
  2.2279699e+00   1.1565861e-01
  4.5020822e-01   8.0231287e-02
  1.9515711e+00   1.7738017e-01
 -2.1876082e+00   1.6253513e-01
  1.6295527e+00   8.8358499e-02
  2.3992042e-01   6.1676390e-02
 -2.0615458e+00   1.8693964e-01
 -2.3697648e+00   8.9755140e-02
 -3.1601093e+00   1.5605377e-01
  2.3882592e-01   1.1515690e-01
 -3.7828927e+00   5.5433109e-02
 -6.7788595e-01   5.4561295e-02
  1.2789823e+00   8.5693948e-02
  1.4901908e-01   1.5921924e-01
 -8.4143597e-01   3.1489249e-02
  3.1013485e-02   1.9505297e-01
 -9.4072944e-01   5.4184370e-02
  1.6635656e-02   2.5288474e-02
 -1.4001528e+00   3.1683628e-02
  1.3144053e+00   1.9017784e-01
 -1.1332163e+00   2.7591658e-01
 -4.5478317e-01   3.6120144e-01
 -6.1355799e-01   1.4829434e-02
  3.5805854e-01   2.3588409e-01
  2.1017368e+00   1.6911489e-01
  2.2068887e+00   1.2112691e-01
  1.5626421e+00   9.4864763e-02
  1.0498513e+00   6.1834138e-02
  2.8248939e-01   1.8610024e-01
 -4.4678339e-01   3.9200809e-02
 -1.2155252e+00   9.4248310e-02
  1.2103709e-01   2.6272038e-02
 -2.2282681e+00   7.0574351e-02
 -2.8474965e+00   8.1832282e-02
  1.5610063e+00   7.5318485e-02
  1.4997423e+00   4.9825177e-02
  7.5297862e-01   2.0036990e-02
 -1.4009400e-01   6.2787488e-02
  1.5633043e+00   1.2625331e-01
 -4.5525715e-01   2.0829839e-01
  3.8322908e-01   2.7516136e-01
 -1.5275958e+00   1.1817421e-01
  1.7655246e+00   9.4958760e-02
 -1.9023079e+00   5.6231149e-02
  3.9729090e+00   7.6457001e-02
 -1.1880896e+00   1.5987909e-01
  8.1147534e-01   5.8413710e-02
 -1.2972288e-01   4.6373442e-02
  2.1992648e+00   4.7840703e-02
  5.8001113e-01   1.2398799e-01
  1.9476746e+00   7.9097256e-02
 -2.6159599e+00   3.7708212e-02
 -9.6042536e-02   8.2805626e-02
 -1.3267319e-01   1.0154743e-01
  5.7105887e-01   3.7215408e-02
 -9.1605008e-01   2.9516354e-01
  2.2629043e-01   1.8693956e-02
  4.7852024e-01   5.1113993e-02
  5.1066881e-01   1.1494788e-01
 -1.0140981e-01   3.0253422e-01
  2.8712676e+00   6.5573715e-02
  5.7099807e-01   3.5915170e-02
  2.1380823e+00   1.3295257e-01
  1.7737556e+00   8.2959265e-02
 -1.7682312e+00   4.1989394e-02
  3.3426278e+00   9.3836799e-02
 -1.2609793e+00   3.5044942e-02
  1.1510441e-01   1.5975323e-01
  1.0144088e+00   1.7638686e-01
 -1.6912693e+00   2.8692886e-01
  2.4516582e+00   6.8703003e-02
  1.5357995e+00   4.9787145e-02
  5.2769411e-01   1.1147968e-01
  1.7651434e+00   8.0812268e-02
  1.3845716e+00   9.8283477e-02
 -1.8111469e+00   2.7903574e-02
  5.9131563e-01   3.4873407e-02
  2.2167376e-01   1.1414068e-01
  7.3028791e-01   3.3227092e-01
  9.3727559e-02   2.4050425e-01
  1.6828011e+00   4.6155239e-03
  5.5775684e-01   6.2275205e-02
  1.9524997e-01   2.2995220e-02
 -2.5851018e+00   4.3557324e-02
  2.2010839e-01   4.7425807e-02
  1.6041759e+00   4.8514483e-03
 -1.1758465e+00   8.3183497e-03
 -3.4266883e-01   8.1027187e-03
 -1.6114023e+00   1.8248154e-02
 -2.6357791e-01   5.6545259e-03
  2.7480610e-03   3.6866538e-02
  7.0986205e-01   7.0284106e-02
 -9.2256945e-01   4.3262925e-02
 -1.0404841e+00   5.9785817e-02
 -4.3603250e-01   1.6617501e-02
  1.0830650e-01   5.4253738e-02
  1.0026085e-01   6.8828329e-02
 -1.2649781e+00   1.1795249e-01
 -1.5828662e-01   2.3661422e-02
 -2.0463142e+00   5.2899446e-02
  1.1724001e+00   2.1391720e-02
 -3.7625835e+00   3.6091376e-02
  1.0059671e+00   4.8447940e-02
  1.3194996e-01   9.5026053e-02
  7.3918456e-01   4.8543125e-02
 -3.1745026e+00   6.3703142e-02
 -1.8372639e+00   1.0368016e-01
 -5.9046590e-01   1.0974330e-01
 -1.1085396e-01   6.4614445e-02
  1.4151258e+00   4.0494356e-02
 -3.0204198e+00   3.2918081e-02
  4.5006841e-01   8.1279814e-02
 -1.5526469e+00   1.4618963e-01
 -9.1206235e-01   1.2281007e-01
 -3.1749537e+00   3.2074932e-02
 -9.3291032e-01   2.2987626e-01
 -3.5613105e-02   1.2578899e-02
 -1.0983444e+00   1.0010704e-01
  1.1649599e+00   7.4839264e-02
 -7.5060999e-01   3.3148777e-02
  8.9391178e-01   6.4522281e-02
 -2.0597033e-01   7.8919850e-02
  3.5217869e+00   8.9188240e-02
  3.1199400e+00   6.2176485e-02
  1.6686370e+00   1.5229064e-01
  1.3187262e+00   2.9517667e-02
 -8.6402792e-01   3.6611978e-02
 -2.5618073e-01   5.7118244e-02
 -1.0817231e+00   3.8561217e-02
  1.2475512e+00   5.2184951e-02
 -1.0972604e+00   4.2219874e-02
 -1.8880108e-01   6.0732342e-02
  6.9834226e-01   8.0962047e-02
  3.8042507e-01   2.3472553e-01
  5.9569663e-01   1.6037451e-01
  1.9501566e+00   1.4692008e-01
 -2.1473334e+00   3.7628096e-02
  1.0216540e+00   7.7022538e-02
 -1.4860038e-01   1.4384215e-01
 -8.8882190e-01   2.0566471e-02
 -1.7943640e+00   8.7489493e-02
 -5.4747796e-01   2.1265745e-01
 -1.1051507e+00   4.4831119e-02
  5.9009457e-01   1.1939766e-01
 -2.0159769e+00   7.9777688e-02
 -2.5555822e-01   8.2043245e-02
  5.5078131e-01   1.3079217e-01
  6.9286990e-01   4.7533881e-02
  6.3305813e-01   2.0104180e-01
 -4.8571748e-01   1.2219168e-01
  1.2449118e+00   1.6419226e-01
 -1.3233150e+00   3.0658302e-01
 -4.6303478e-01   1.3130912e-01
 -8.8120937e-02   4.4385694e-02
  2.7963752e-02   9.9498257e-02
 -4.0936284e+00   3.4653030e-02
 -1.6932420e+00   1.0264716e-01
  7.1431175e-03   6.4152017e-02
 -6.1205578e-01   2.9204193e-01
  7.3505902e-01   4.4382080e-02
  2.1380973e+00   7.7193521e-02
 -1.3006977e+00   6.3031070e-02
  4.0611286e+00   1.6842592e-01
 -5.2698582e-01   2.4637938e-01
  5.3906113e-01   1.1675415e-01
 -4.0041572e-01   7.0374377e-02
  5.1956248e-01   2.2061774e-01
  3.7988740e-01   3.4844771e-02
 -3.7711740e+00   1.6665819e-01
 -1.4775170e-01   1.8838458e-01
 -1.8523569e-01   3.3139117e-02
 -1.6069777e-01   2.6368825e-02
  9.1980964e-01   5.3343434e-02
  6.5781701e-01   8.3499454e-02
 -4.1204849e-01   1.1400503e-01
 -2.6490917e+00   1.1740287e-01
 -2.5710652e-02   1.2175085e-01
  1.3279619e+00   5.7735574e-02
  2.7524027e-01   1.1307678e-01
  6.2851036e-01   1.1369562e-01
  7.1532525e-02   6.3408963e-02
  4.9852833e-01   7.1259923e-02
  1.5386543e-01   4.2726737e-02
  2.5835080e+00   1.7630143e-01
 -7.7964105e-02   1.6111906e-01
 -3.9847192e-01   1.9506589e-01
  8.5777926e-01   1.2685190e-01
  1.8087639e-01   1.3196939e-01
  8.4536225e-01   8.4902726e-02
  1.5259156e+00   2.7728683e-01
  1.1014516e+00   3.3105891e-02
 -4.3858358e-01   5.0123908e-02
 -2.5459537e-01   4.6601899e-02
  5.5395776e-01   5.2728839e-02
  8.1087034e-03   8.4095143e-02
  4.0151581e-01   4.5838311e-02
  1.9031523e+00   1.1204250e-02
 -1.1688515e-01   1.7769240e-01
 -1.5709937e+00   4.7402091e-02
  4.4400290e-01   7.3803619e-02
 -2.0031657e+00   7.9919919e-02
 -1.3349383e+00   7.3056683e-02
  1.9699762e+00   1.2723014e-01
  1.7310309e-01   4.3751005e-02
 -6.1931098e-01   9.9583372e-02
 -1.5414786e+00   1.3631999e-01
 -3.0349499e-01   1.2400659e-01
  5.4107225e-01   2.7667043e-01
 -2.1609912e+00   7.6684937e-02
  6.6316533e-01   5.1340461e-02
  1.2843363e+00   6.4984955e-02
  5.5485801e-03   1.3586144e-01
 -7.5078976e-01   5.6647032e-02
  1.0444484e+00   9.4174922e-02
  2.2572198e+00   4.0269393e-02
  5.9646446e-01   9.7288676e-02
 -3.3845955e-01   9.9877186e-02
 -8.2109475e-01   4.7937700e-01
  1.8644692e+00   5.5141244e-02
  1.5754000e+00   4.8169311e-02
 -1.4244230e+00   9.4861969e-02
  3.1551492e-01   5.6654420e-02
 -2.3983867e+00   7.8593083e-02
 -5.4490095e-01   2.0907668e-02
  1.4549383e+00   2.7687168e-02
 -1.7245003e+00   8.9993522e-02
  2.3302104e+00   1.3081157e-01
 -2.6625273e-01   2.2803201e-01
  1.3672980e+00   2.7686349e-01
 -2.9027288e+00   7.2293766e-02
  1.5097958e-01   1.6940445e-01
  1.3265095e+00   9.0585023e-02
 -8.6001247e-01   1.4229107e-01
 -2.6542786e-01   8.7406836e-02
  1.2984669e+00   1.3965963e-01
 -1.6539495e+00   1.3599634e-01
 -2.5364630e+00   6.5352000e-02
 -1.5195201e-01   5.4042391e-02
 -2.5049493e-01   8.3642542e-02
  1.5878623e+00   1.7800385e-01
 -6.8167651e-01   1.2901012e-02
 -1.7211751e+00   3.6034312e-03
  3.7075365e-01   2.9993748e-02
  3.0074930e-01   6.0422707e-02
  6.1047202e-01   2.8938301e-02
 -1.2136117e+00   4.7617378e-03
 -2.4230521e+00   1.5934417e-02
 -7.8985935e-01   7.9413215e-03
  3.3688214e-01   9.9433335e-03
  5.0340849e-01   7.9341289e-03
  1.2375607e-01   3.9726969e-02
  3.0132618e+00   1.0375665e-01
 -5.5191207e-01   4.1017238e-02
  9.5133233e-01   1.8522623e-01
  1.0514632e+00   4.4326406e-02
  2.7401586e+00   8.7069221e-02
 -2.2740350e+00   1.3047175e-01
  2.6687387e-01   1.7608108e-01
  1.1197433e+00   2.4556493e-02
  3.0140063e-01   3.3204250e-02
  2.3404102e+00   4.7845274e-02
  2.4788611e+00   4.4580199e-02
  6.4469093e-01   8.5526317e-02
  7.8456610e-01   6.2481139e-02
  4.2519310e-01   4.6897631e-02
  4.4457728e-01   6.2011234e-02
  5.6934893e-01   1.4391179e-01
  2.2270302e-01   5.8645889e-02
  7.7072054e-01   9.9213749e-02
 -7.7230912e-01   1.1401092e-01
 -1.0926837e+00   2.6880937e-02
  1.6042588e+00   3.3503536e-02
 -1.7461276e+00   6.2084403e-02
  2.2086313e+00   4.1470449e-02
  1.6121371e-01   1.1338113e-01
  1.5293983e+00   5.6403406e-02
 -1.1554830e-01   7.6942123e-02
  1.1944640e+00   2.8449869e-01
 -9.0735048e-01   5.9087660e-02
  6.9466847e-01   8.9276060e-02
 -6.1242115e-01   8.6856030e-02
  7.8725940e-01   8.7735541e-02
 -3.1525371e+00   2.7792806e-02
 -1.5528982e+00   1.2247384e-01
 -5.6189887e-02   7.5237051e-02
  4.1426530e-01   9.6728668e-02
  1.6020805e-02   7.8837454e-02
 -4.2822993e-01   2.6602280e-01
  1.1968930e+00   7.8282692e-02
  2.4424204e-01   1.2134036e-01
  1.6885785e+00   6.0623225e-02
 -5.4310329e-02   1.9079927e-02
 -1.5219676e+00   4.0888272e-02
 -9.7907770e-01   1.0986339e-01
 -2.9822227e-01   3.9375260e-02
  1.3627920e+00   9.7473353e-02
  1.9112804e+00   1.9968241e-02
  5.5288100e-01   7.7147633e-02
 -4.9450746e-01   1.4834516e-01
 -4.6191305e-01   8.3619371e-02
  2.2951355e+00   5.1605035e-02
  2.9828660e+00   4.5379661e-02
 -5.3652161e-01   1.9495387e-01
  2.9948976e+00   6.9262125e-02
 -9.4456777e-02   6.1023921e-02
  9.3379366e-01   1.0732993e-01
  1.6374494e+00   1.1832521e-01
 -2.0503044e+00   1.5292586e-01
  1.4515211e-01   7.7708445e-02
  9.0444744e-01   9.2961639e-02
 -2.7923906e-02   1.6242489e-01
 -2.0168772e+00   2.5660229e-01
  1.7742612e+00   1.0072787e-01
 -9.3998313e-01   1.6332944e-01
 -5.5069470e-01   1.6265595e-01
 -4.6269250e-01   1.3979085e-01
 -4.7555378e-01   1.8646186e-02
 -2.2590609e+00   3.4939054e-02
 -8.2449985e-01   1.4587639e-01
 -3.9048325e-02   3.9217241e-02
 -8.3471566e-01   7.7832438e-02
  1.8095033e-01   1.6910914e-01
  1.0915790e-01   3.5806645e-02
 -9.9831551e-01   7.0452489e-02
 -3.2776339e+00   1.2646075e-01
  1.9871278e+00   5.3589988e-02
 -7.7951068e-01   1.4726198e-01
 -5.1306415e-01   3.1291559e-01
  8.6923110e-01   1.2726787e-01
  1.1449205e+00   3.6677610e-02
  3.1918022e-01   3.4525327e-02
  1.6083258e+00   1.9670907e-02
 -1.3099325e+00   2.7160522e-01
 -8.2496458e-01   9.2310391e-02
  1.1402909e+00   2.3785446e-02
 -5.4508090e-01   6.9215417e-02
 -2.2429264e-01   9.5638737e-02
 -4.5090845e-01   1.1259381e-01
 -2.3497486e-01   3.6154088e-01
  1.9589332e+00   4.2054899e-02
 -2.8793222e-01   2.8912691e-02
 -2.0725446e-02   2.0716226e-01
 -1.9159576e-01   1.2434594e-01
  2.2274904e+00   5.7911403e-02
 -8.2427758e-01   1.0224959e-01
  3.9449075e-01   8.4604859e-02
 -1.5917040e-01   1.0340695e-01
 -6.3229376e-01   3.5799112e-02
  2.5958472e-01   1.8469504e-01
  1.6130146e+00   7.9428636e-02
  3.3023578e-01   3.3091158e-02
  1.3476114e+00   1.9296917e-01
  2.6285541e+00   2.9600436e-02
  8.4387445e-01   5.5016730e-02
  1.2494692e-01   4.5359407e-02
  5.0324416e-01   1.6874582e-01
 -3.6136836e-01   3.7014645e-01
 -1.4504901e+00   1.3755992e-01
 -9.8636574e-01   1.8395493e-02
 -2.5752444e+00   2.1118797e-01
  1.5979800e+00   6.7152739e-02
 -6.7816412e-01   9.5295928e-02
 -3.5362852e+00   5.3146929e-02
 -1.6756254e-01   5.1725414e-02
 -1.6202503e-01   6.6845678e-02
 -3.2269323e+00   2.0249034e-01
  4.1681133e-02   9.1318995e-02
  9.2575327e-05   1.9404364e-01
 -7.3959358e-02   1.0882178e-01
 -2.8247652e+00   1.4364544e-01
 -7.2415358e-01   1.1671999e-01
 -6.9800198e-01   2.5547597e-01
  2.1754779e-01   6.1731491e-02
  1.6381613e+00   4.4552218e-02
  1.5900281e-01   2.0192212e-01
  4.5465571e-01   1.2206817e-01
  9.4519961e-01   1.0872961e-01
 -1.9372772e+00   8.4126726e-02
  1.2972777e+00   4.4835676e-02
  4.9967489e+00   7.0314817e-02
 -8.0252904e-01   3.0150151e-01
  3.3458218e-01   1.3887776e-01
 -1.9139731e-01   4.8812628e-01
  7.0417488e-01   2.5986883e-01
  3.6105313e+00   8.0763422e-02
 -9.4944730e-02   2.3065509e-01
 -4.5884065e-02   2.9521737e-01
 -7.4180359e-01   3.9683748e-02
  4.0997422e-01   3.2103058e-02
 -9.9623746e-01   2.9965611e-02
 -1.4528832e+00   2.3850024e-01
 -1.7685075e-01   5.7421625e-02
  5.4720396e-01   2.1794926e-01
  2.8629870e+00   1.9804234e-02
 -7.1504420e-01   1.8638059e-01
 -8.9201972e-02   4.9750187e-02
 -4.6313295e-01   5.3726342e-02
  5.5441374e-01   1.1581005e-01
 -1.6255585e+00   1.2362860e-01
 -6.0252652e-02   6.8829179e-02
  8.3902687e-01   5.2877213e-03
  1.7620953e+00   1.5337141e-02
  1.1870825e+00   8.3411813e-02
 -5.8399206e-01   7.7722326e-02
 -1.3558729e+00   4.2547833e-02
  2.8084934e+00   3.6786497e-02
  5.8676100e+00   2.2902919e-02
  2.5058469e-01   4.9144838e-02
  2.3434556e+00   2.9931754e-02
  6.3498920e-01   2.7791554e-02
  1.8351786e+00   3.2605514e-02
 -9.8119862e-02   5.1742259e-02
  3.1686816e-01   1.2560174e-01
  7.3483956e-01   6.1135896e-02
  1.9992169e+00   3.7061531e-02
  7.0362246e-01   4.1584022e-02
  1.1343098e+00   4.8760731e-02
  2.1637313e+00   8.7522380e-02
  3.0809104e-02   1.8490288e-01
  5.5184889e-01   1.1509632e-01
 -2.3189702e+00   4.2510875e-02
  7.2062922e-01   4.9142264e-02
  2.8239299e-02   4.4828404e-02
 -5.1845109e-01   3.7941432e-01
 -8.5238695e-01   8.0508679e-02
  4.4052210e-01   9.2029899e-02
 -1.4499040e+00   6.3031331e-02
  9.4690150e-01   8.5147686e-02
  2.0328802e-01   5.3290259e-02
  5.0735092e-01   1.6968219e-01
 -1.6716019e+00   5.7900682e-02
 -7.0142126e-01   2.2041737e-01
  2.2226550e-02   1.4484994e-01
  1.0432159e-01   9.7310930e-02
 -7.5097454e-01   4.6078514e-02
 -3.9260229e-01   5.8485411e-02
  1.6418496e-01   4.8619233e-02
 -3.1291765e-01   3.3342728e-01
  8.3425355e-01   2.9193422e-01
 -9.7179502e-01   2.6484290e-01
 -8.8769561e-01   6.0046557e-02
  7.6247074e-02   1.6024050e-01
 -4.2370760e-01   2.1471873e-01
 -2.7817008e+00   4.7177747e-02
  1.3490754e-01   2.9678375e-02
  9.8235434e-01   6.5781876e-02
  1.1328694e-01   1.5982740e-01
  1.1924082e+00   5.9419729e-02
  9.9626344e-01   1.4477338e-01
  1.4652048e+00   1.0793535e-01
  2.7121534e+00   1.5309095e-01
 -6.3950429e-03   2.2147993e-02
  2.2867961e-01   1.4770551e-01
 -2.0132428e-01   4.9223357e-01
  2.2977282e-01   1.1084989e-01
 -8.6693031e-01   7.8536741e-02
  6.2835604e-01   5.6342363e-02
 -4.9739456e-01   2.9441711e-01
  2.6011613e-01   2.3569426e-01
  1.3593451e+00   1.3644096e-01
  1.1319594e+00   1.3763818e-01
  1.3808181e+00   8.5679524e-02
  9.4336921e-01   2.0032397e-01
 -4.0084377e-01   1.1537939e-01
 -1.1316280e+00   1.7206718e-01
 -9.9777174e-01   2.1027812e-01
  4.9660763e-01   5.9790820e-02
  1.8354547e+00   1.0318916e-01
 -6.4948924e-02   1.1420091e-01
 -1.0510511e+00   2.1236777e-01
 -2.1746447e+00   5.7808846e-01
  1.7835244e+00   7.0128880e-02
 -2.5788920e+00   1.0439388e-01
 -1.1316845e+00   4.2409286e-01
  6.3149261e-01   1.9088833e-01
  1.4380342e-01   1.9012313e-02
  9.0472385e-02   6.9898404e-02
  1.3603199e-01   6.6309974e-02
 -7.3345029e-01   9.2118263e-02
 -2.0879171e+00   1.0885140e-01
 -7.4225700e-01   1.0282058e-01
  1.9484757e-01   1.0361028e-01
 -3.6450508e-01   1.3165282e-01
 -8.0987230e-02   1.9404361e-01
  4.9715698e-01   3.2002855e-02
 -2.1322529e+00   1.8386917e-01
 -1.6274228e+00   1.0268646e-01
  9.0597624e-01   3.6048785e-02
 -9.1242835e-02   1.8385072e-01
  1.7286537e+00   5.1126685e-02
 -6.0953903e-01   1.2641251e-01
 -9.1942281e-01   1.1798958e-01
 -1.4460618e+00   1.7361997e-01
  5.9258372e-01   8.8248894e-02
  1.0614756e+00   5.4544055e-01
  1.1452051e+00   8.4477641e-02
 -2.1401992e+00   9.7176068e-02
 -3.2176533e-01   1.7145637e-01
 -1.4499034e+00   2.1104009e-01
  1.1379428e+00   5.2479282e-02
 -3.5581088e-01   6.4368688e-02
  9.6386957e-01   4.8930846e-02
  1.1335690e+00   6.1246295e-02
  2.6824057e-01   2.0310946e-01
  4.0595770e-01   2.0119105e-01
  2.5852314e-01   2.6369107e-01
  2.4969316e+00   1.3157678e-01
  2.3654130e+00   8.2197882e-02
  4.7950214e-01   1.5182655e-01
  2.6733384e-01   7.9415262e-02
  2.5105541e+00   5.0638374e-02
  1.2159879e+00   1.2930945e-01
 -2.1239891e+00   3.2593805e-02
  1.2892910e+00   9.8755412e-02
 -2.9393787e+00   1.1750138e-01
 -1.3932003e-01   8.0738798e-02
 -1.3476678e+00   1.3434418e-01
  1.6503192e+00   8.1243172e-02
 -1.8403620e+00   3.3981919e-02
  3.3181214e-01   1.9286290e-02
  2.7325130e-01   8.8368043e-02
  1.5427683e-01   4.7062654e-02
  3.7861273e-02   9.6201941e-02
 -2.4209861e-01   4.4720821e-02
 -1.5608658e+00   1.2915899e-01
  1.0983914e+00   9.2117123e-02
 -3.1846762e+00   1.1093953e-01
  4.6181196e-01   1.2589453e-01
  2.8169769e-01   1.4515793e-01
 -1.4982052e+00   1.0081071e-01
  1.5175182e+00   1.0666358e-01
  1.0902693e+00   5.1870454e-02
  7.7283663e-01   1.7980520e-01
  3.0540125e+00   1.6154557e-01
 -2.1983929e+00   1.1267765e-01
  9.2833352e-01   6.1103255e-02
 -3.1729827e+00   1.4815028e-01
  3.1711772e-01   7.0928067e-02
 -4.5504403e-01   1.3298419e-01
 -9.9534744e-01   7.8442872e-02
  4.9425042e-01   8.5088260e-02
  4.0514064e-01   1.2972550e-01
 -2.9260069e-01   1.4305034e-01
 -8.0582654e-01   8.2033075e-02
  9.8713207e-01   1.7706688e-02
  1.8241176e-01   5.5512387e-02
 -2.8936436e-02   2.1313494e-02