  8.7268901e-01   2.0106363e-01
  9.0062016e-01   1.0943303e-01
 -7.4157411e-01   7.1143083e-02
 -1.4479055e-01   7.8978799e-02
 -1.7930548e-01   9.1378100e-02
  4.8780337e-01   8.3528630e-02
 -6.5621668e-01   4.6384167e-02
  8.9333743e-01   1.2125934e-01
  3.2638147e-01   1.8803240e-01
  1.5967034e+00   2.5902903e-01
  2.4086804e+00   4.4575639e-02
  7.9962039e-01   1.3953190e-01
  1.0533975e+00   1.0077391e-01
  2.7045207e+00   3.9935231e-02
  4.7978503e-01   1.1790279e-01
  1.0700099e+00   4.9778260e-02
 -1.0477024e+00   7.7904597e-02
  5.5891484e-01   2.3268202e-01
 -1.1322156e+00   1.1438692e-01
  2.8714871e+00   7.5385630e-02
 -4.8443133e-01   7.0357583e-02
  2.0120671e+00   5.1071562e-02
 -7.7427477e-01   2.5040716e-01
  4.0655601e-01   3.0920038e-02
  2.0487487e-01   4.7699194e-02
  1.1400189e+00   2.9649910e-01
  6.6365875e-02   2.6149601e-01
  6.8880320e-01   7.4534878e-02
 -8.2458776e-01   6.0453683e-02
 -1.5289502e-01   1.3618881e-02
  4.9201179e-01   4.8923634e-02
 -1.9589189e+00   2.1809401e-02
 -9.3503416e-01   2.6564416e-02
 -6.9475681e-01   5.0751857e-02
  1.4874195e+00   5.2249122e-02
  9.3798268e-01   3.6929041e-02
  2.2276509e+00   2.9259970e-02
  8.2057655e-01   5.4055415e-02
 -1.8635879e-01   3.5097398e-02
 -2.6563818e+00   1.0722359e-02
 -1.8349533e+00   6.7249618e-02
 -3.2409868e-01   1.2904571e-02
  3.7722081e-01   1.2514359e-01
 -1.3703414e+00   3.8443215e-02
 -4.0475763e-02   5.2459139e-02
 -1.1951087e+00   4.0115368e-02
  1.6774484e+00   2.0753207e-02
 -1.2889358e-01   4.4106744e-02
 -4.1012335e+00   5.4735314e-02
 -2.6403663e-03   6.4685695e-02
 -1.0836468e+00   1.1763168e-02
  1.1519763e+00   7.7077694e-02
 -4.7722790e-01   2.8893422e-02
  1.0914605e+00   7.7209182e-02
 -5.2908313e-01   7.9090431e-02
  1.9442172e+00   1.2487391e-02
 -1.1373651e+00   2.3187584e-01
  5.8538747e-01   7.8040406e-02
  8.9487159e-01   1.3567734e-01
 -1.2651712e-01   9.4133794e-02
 -4.0979135e-01   4.9348507e-02
 -1.9799455e+00   7.4403681e-02
 -8.8862425e-01   1.1124549e-01
  1.3533643e+00   1.6703352e-02
  1.7992346e+00   9.9093452e-02
 -1.2877036e+00   7.1782291e-02
  1.7118216e-01   5.1448051e-02
  8.4622842e-01   1.6747460e-01
 -1.8601193e+00   6.1961137e-02
 -3.5885784e-01   2.7045158e-01
  3.3878620e+00   8.1697948e-02
 -1.4897290e-01   1.6587909e-01
 -3.2624027e-01   1.8064016e-02
  8.6940192e-02   3.9662689e-02
  1.9605112e+00   9.7222738e-02
 -9.9709265e-02   4.3593518e-02
  2.5917485e+00   1.2931234e-01
 -2.2075605e+00   1.1226136e-01
 -2.1505790e+00   2.2449298e-01
 -5.8964026e-01   2.2013073e-01
 -2.0629201e+00   6.2533997e-02
  6.3418046e-02   1.0674907e-01
 -4.9628919e-01   1.2436394e-01
 -5.4787707e-01   1.1326574e-01
 -9.1018826e-01   1.2742344e-01
  1.2360270e-01   3.6538776e-02
  1.4719983e+00   1.2610805e-01
 -1.9556086e+00   3.0011663e-02
 -9.2890775e-01   3.8228266e-02
 -9.4344294e-01   4.1620020e-02
 -1.3534744e+00   9.7407758e-02
  3.0002719e-01   1.0140235e-01
 -1.1530018e+00   7.0874430e-02
 -2.0599282e+00   8.0045059e-02
 -1.4103468e-01   2.9812669e-02
  1.3190309e+00   8.5515313e-02
  4.7488630e-01   7.0391819e-02
  1.7434124e+00   6.1087344e-02
 -1.5952580e+00   4.5212980e-02
  3.0863801e-01   7.4821562e-02
  8.4199595e-01   1.0324088e-01
 -8.4529108e-01   6.0776908e-02
 -5.3334576e-01   2.3886704e-01
 -3.7220407e+00   5.1520228e-02
  1.6566420e-01   3.7679218e-02
  2.8282561e+00   8.3594404e-02
 -6.9738460e-01   2.3201041e-01
 -2.5754803e-01   8.9297995e-02
  1.6091774e+00   5.0169587e-02
 -2.9737675e+00   1.1929152e-01
  2.8808638e-01   4.9446169e-02
  6.5403897e-01   5.3287286e-02
  6.0278273e-01   1.1161017e-01
 -5.5625671e-01   1.9350637e-01
 -2.0923514e+00   8.2276821e-02
  3.7278837e-01   1.3443343e-01
  3.2677104e+00   7.5852692e-02
 -4.3458542e-01   8.6311132e-02
  1.3537595e+00   4.3788429e-02
 -3.6507208e-02   7.5409621e-02
  1.2707849e+00   2.1816405e-02
  4.8431325e-01   6.5279352e-03
 -1.6080973e-01   3.3361636e-02
 -4.7138616e-01   1.2863447e-02
 -9.3864447e-01   2.1755664e-02
  4.5647484e-01   2.6765140e-02
 -9.5361851e-02   3.7689213e-02
 -4.1463128e-01   9.9952715e-03
  1.8206823e+00   1.0260767e-02
 -4.6534204e-01   1.5479292e-02
  1.5868567e+00   6.3553177e-02
 -3.3212957e-01   3.8826030e-02
 -1.3836036e+00   4.1652042e-02
 -9.5446646e-01   5.4304868e-02
 -4.9550235e-01   2.8828356e-02
  1.0052365e+00   6.5343454e-02
 -2.2751894e+00   1.0079124e-01
  7.1913958e-01   5.6148637e-02
 -1.2821671e-01   1.0163335e-01
 -1.5906053e+00   6.0517725e-02
  2.2543287e+00   1.8317210e-02
 -5.0445718e-01   3.0034656e-02
  8.3048534e-01   2.6242673e-02
 -1.7451636e+00   2.4162646e-02
 -1.3710149e-01   3.2029044e-02
 -2.1376445e+00   1.1915030e-01
  2.9613125e-01   9.6880555e-02
 -5.2805573e-01   3.9717242e-02
  2.1192169e+00   1.6333662e-01
  1.5141472e+00   1.0441409e-01
 -1.1171863e+00   1.0971233e-02
 -3.1706306e-01   9.3940822e-03
  2.3855996e+00   1.3237384e-01
 -3.7509537e+00   4.8504099e-02
 -7.9209012e-01   5.3170430e-03
 -7.6352537e-01   8.2852930e-04
 -7.8964806e-01   2.2638624e-03
 -3.6407301e-01   1.6117361e-03
 -1.9085616e+00   7.8015862e-04
 -1.1012112e+00   2.3408628e-03
  1.1243867e+00   1.0766275e-02
 -6.0541290e-01   1.9951005e-02
 -1.0569150e+00   8.8191917e-03
 -9.3712103e-01   1.7884064e-03
 -3.8672721e-01   4.5793103e-03
 -2.6229925e+00   5.4792155e-02
 -3.1405851e-01   8.6168144e-03
 -3.3198017e-01   1.6562866e-02
 -1.4961649e+00   2.3303429e-02
 -1.1710246e+00   3.8060993e-02
  1.1689154e+00   4.5870505e-03
  1.7193784e+00   4.3995380e-03
  6.9690072e-03   6.1972458e-03
 -3.6498468e+00   5.7031391e-03
  3.8580069e-01   1.4334274e-02
  1.8314686e+00   6.3548023e-03
  3.0368674e+00   1.0074626e-02
  7.4568653e-01   1.0827456e-02
 -2.8608942e+00   8.4701590e-03
  1.1507374e+00   1.9511979e-02
 -1.9681685e+00   6.9622858e-03
  8.9201868e-01   3.0634624e-03
  1.2678540e+00   8.9302314e-03
  1.1446229e+00   4.6332232e-03
 -4.3584578e-02   1.4065616e-02
  3.4948187e+00   8.8952100e-03
 -3.5132391e+00   1.0682223e-02
  4.3142090e+00   4.6059206e-02
 -2.7124641e+00   2.4719846e-02
  2.3664805e-01   7.7596717e-02
 -2.1207283e+00   1.3937481e-02
  1.9391534e+00   1.5522355e-02
 -2.4223289e+00   1.7864317e-02
 -2.3384160e-01   5.8321534e-03
 -2.6967299e-01   7.8097018e-03
  8.5630745e-01   6.1766323e-02
  1.0435507e+00   1.5305114e-02
 -7.0251292e-01   1.5001439e-02
  2.5113070e-01   3.9091330e-02
 -4.0556347e-01   2.4613690e-02
  1.9915805e+00   1.1584757e-02
 -1.0363773e+00   6.2049520e-03
 -1.9564587e+00   1.7230587e-02
  8.9996509e-02   8.2717314e-03
 -2.3181212e-01   1.4945468e-02
  5.3819835e-01   8.8015683e-03
  7.5183302e-01   5.4989136e-03
 -2.5082907e-01   1.4228218e-02
  1.5990211e-01   8.6496668e-03
  2.5808268e+00   2.3405468e-02
  3.0848820e+00   8.8274600e-03
 -1.0077144e+00   8.7303249e-03
  1.5837027e-01   2.1107063e-02
 -1.1219529e+00   3.6001285e-03
  6.7714882e-01   1.5481036e-02
 -2.6951671e+00   2.3808867e-02
 -3.1381869e+00   3.0511510e-02
 -7.8004742e-01   4.5337774e-02
 -1.7083880e+00   3.7399866e-02
  1.4414740e+00   5.7378057e-02
 -1.9138036e+00   1.3944051e-02
 -7.1130800e-01   2.1530382e-02
  1.6855271e-01   5.9875261e-02
  3.0765009e-01   5.6531383e-03
  1.1016468e+00   7.8260852e-03
  2.8511367e+00   1.1403965e-01
  1.9372983e-01   2.9949211e-02
  2.0963044e+00   4.6936058e-02
 -5.7830322e-01   4.6443079e-02
  8.8968962e-01   3.7632197e-02
  2.0137773e+00   2.2449896e-02
  2.1555600e+00   3.5436451e-02
 -9.2482728e-01   1.5643239e-02
  8.1470799e-01   2.7525788e-02
  5.0897264e-01   2.6793722e-02
  1.3937533e+00   1.5186522e-02
 -5.1536431e+00   4.2157285e-02
  4.1576949e-01   1.5539201e-02
  9.3629026e-01   1.1911822e-02
  1.6153279e-01   9.8428890e-02
  9.4852287e-01   1.8628178e-02
  2.1614149e+00   1.9917477e-02
 -1.6237431e+00   1.6879698e-02
 -8.6271882e-01   2.0018678e-02
  4.0060310e+00   7.2040983e-02
 -3.4128708e-01   1.2978099e-01
 -3.0322475e+00   1.6503796e-01
 -9.9667633e-01   2.0245862e-01
  2.0051708e+00   1.5797029e-01
 -2.9493043e+00   7.5248562e-02
  8.0749381e-01   7.6179453e-03
 -1.2572830e+00   1.3841152e-02
  2.5277048e-01   6.4792875e-03
  1.0827600e+00   3.6970286e-03
 -1.3501770e+00   7.9751406e-03
 -2.1152196e+00   3.5575558e-02
 -2.3277774e+00   2.4067009e-02
 -7.4693698e-01   1.1825706e-02
 -1.5240915e+00   1.0550037e-01
 -3.0034397e+00   7.9195291e-02
 -2.9758368e+00   3.0076733e-02
  6.7365909e-01   2.8978277e-02
  2.0944364e-01   2.0716311e-02
  1.0411118e+00   8.1580672e-03
 -1.1978816e+00   2.1462681e-02
 -5.3562659e-01   1.6955601e-02
  4.9642056e-01   4.4932496e-02
  2.8170762e+00   1.0936418e-02
 -1.7107117e+00   1.9195832e-02
  3.2823347e-02   2.8908584e-02
 -1.4941235e+00   1.2554126e-02
 -8.5823417e-01   1.9256255e-02
  5.5574793e-01   1.3612405e-02
  8.9521259e-01   1.0675802e-02
  8.0366254e-01   3.6253810e-02
  3.0772316e+00   4.6473011e-02
 -1.0182905e+00   7.8168735e-02
 -2.3658566e+00   3.0735170e-02
 -8.2610452e-01   8.4024318e-02
 -5.4193698e-02   1.2042794e-01
 -4.4355932e-01   1.4616458e-01
 -9.2472029e-01   2.0810635e-01
  4.2354602e-01   5.1711865e-02
 -8.6418748e-01   5.6910779e-02
  1.1459197e+00   1.5705407e-01
  1.2377558e+00   2.8212383e-01
  8.6179391e-02   1.6862175e-01
  1.8071527e+00   7.1846686e-02
 -2.2702624e-01   7.8136265e-02
  2.2324109e-01   1.5438229e-01
 -4.2326769e-01   5.2297860e-02
 -2.1577746e-01   2.1170372e-01
  1.1022363e+00   4.0545020e-02
  1.5080183e+00   4.8991587e-02
 -3.1080711e-01   3.3318140e-02
 -1.5340699e+00   9.3197867e-02
 -6.7007832e-02   2.0145388e-01
  7.5328641e-02   3.3121672e-02
 -1.6622777e+00   1.1342566e-01
 -8.3113402e-02   1.9234893e-01
 -8.9292514e-01   4.5200296e-02
  1.9197373e+00   2.3681019e-01
 -1.4858433e+00   6.0738061e-02
  2.4657175e-03   2.8067595e-01
  3.6279786e+00   8.0882221e-02
  5.0855219e-01   9.7247094e-02
  2.8432965e-01   3.2245585e-01
 -7.1219224e-01   2.6144496e-01
  2.8181778e-02   1.0900243e-01
  1.7015119e-01   3.7390423e-01
  1.3118095e+00   1.2767833e-03
  5.2858037e-01   2.7895155e-03
  5.6680191e-01   2.5267235e-03
 -6.3320678e-01   1.6836036e-03
 -2.9761916e-01   4.5214362e-02
  3.8001480e+00   1.7846950e-03
  1.9047540e+00   2.3744244e-03
  1.4186237e+00   2.4794969e-03
 -2.5425816e+00   2.4868681e-03
 -1.6746439e-02   2.3848051e-03
 -1.4789212e+00   3.3615105e-02
 -4.3176794e-01   5.0352685e-02
  1.6412235e+00   1.0128265e-02
 -8.9421111e-01   1.9629212e-02
 -1.2290524e+00   5.4585669e-02
  2.3281617e+00   5.3356756e-02
 -9.1631645e-01   1.9250806e-02
 -5.7157785e-01   1.7751534e-02
 -2.5041797e+00   5.4185256e-02
  1.9361686e+00   4.4266198e-02
  7.8147000e-01   6.8269245e-02
  6.8832761e-01   3.4866009e-02
  1.0676168e+00   2.6194910e-02
  3.3416150e+00   2.5926413e-02
  2.1433660e-01   3.6660325e-02
 -1.8014780e-01   2.3985773e-02
  1.0729553e+00   6.2510036e-02
  1.0032010e+00   5.6561999e-02
 -2.8528050e-01   2.8782826e-02
  1.3390592e+00   1.2736720e-01
  1.1454575e+00   3.4505799e-02
  3.1929188e+00   5.1037397e-02
 -1.7387903e+00   2.2647522e-02
 -2.2691205e+00   3.6431525e-02
  6.8851119e-01   2.8943013e-02
  1.3391081e+00   9.2227623e-02
  6.4824319e-01   6.9794178e-02
  1.4665738e+00   1.7334199e-01
 -9.0716773e-01   4.3259449e-02
  1.0193563e-01   4.1169297e-02
  7.5348336e-01   3.6893532e-02
  2.7880305e-01   2.5965324e-01
 -2.2996991e+00   5.8450308e-02
  2.4009159e+00   1.0578500e-01
 -5.8059007e-02   1.8646979e-01
  1.3722492e+00   5.2420333e-02
  1.8216863e+00   1.8278582e-01
 -4.9730963e-01   1.1620533e-01
  4.0341344e+00   1.8082751e-01
 -1.0135992e+00   1.4069934e-01
  9.7898722e-01   1.3668476e-01
  2.7535543e-01   5.7024121e-02
 -2.4530468e+00   7.2927453e-02
  2.8758103e-01   5.2205049e-02
 -1.2774150e+00   9.9043742e-02
  2.0704770e-01   1.9918551e-01
 -4.6154845e-01   4.9226556e-02
  5.4341680e-01   6.2546469e-02
  8.9640349e-01   1.7035626e-01
 -1.0140789e+00   1.7409563e-02
  3.8597509e-02   6.7073531e-02
 -9.7596049e-01   4.4186547e-02
 -1.6887454e+00   2.2724718e-01
 -9.2965513e-02   1.9617732e-01
  7.1330145e-02   7.1126752e-02
 -7.0117211e-01   7.4348181e-02
 -4.1021651e-01   2.5703965e-02
  1.4540983e+00   1.8359593e-01
 -1.6492815e+00   3.3814460e-02
 -8.6151809e-04   2.0933904e-01
  3.1550029e-01   1.1464029e-01
  8.1291759e-01   3.4073719e-01
  2.6742566e-01   4.0727753e-02
 -1.6137882e+00   4.1183919e-02
  1.0699169e-01   8.5112460e-02
  8.2023484e-01   8.5538313e-02
 -5.9165627e-01   7.0865840e-02
  6.9115120e-01   2.3878029e-01
 -1.7476047e+00   1.3824452e-01
 -2.7988683e-03   1.4018269e-01
  1.8494717e+00   1.1909109e-01
  4.5014939e-01   9.9327348e-02
  1.6618978e+00   1.5052173e-01
 -2.5306649e+00   1.6988541e-01
  1.2925680e+00   8.5993335e-02
  1.2354594e-01   6.4799845e-02
 -9.8169029e-01   1.4970946e-01
 -1.9798393e+00   8.4911339e-02
 -2.7037611e+00   1.6773368e-01
 -5.0839722e-01   1.1974213e-01
 -3.8397987e+00   5.4215197e-02
 -8.8341117e-01   5.3877968e-02
  8.1144786e-01   8.0391288e-02
 -4.9528107e-01   1.5782379e-01
 -7.5748831e-01   3.6763608e-02
 -8.4602857e-01   1.8761937e-01
 -9.8649943e-01   4.9852774e-02
 -8.6308897e-02   2.7179342e-02
 -1.3684194e+00   3.1548206e-02
  1.6865554e+00   2.2003677e-01
 -6.7952508e-01   2.6720473e-01
 -7.4899745e-01   3.3396250e-01
 -6.3805616e-01   1.8134577e-02
  2.7110934e-01   2.3124179e-01
  2.6252902e+00   1.6110526e-01
  1.9805943e+00   9.7123921e-02
  1.3965417e+00   1.0993695e-01
  8.2681680e-01   6.3197576e-02
 -2.3710412e-01   1.7911725e-01
 -2.4420093e-01   4.3549787e-02
 -1.8406128e+00   9.5713817e-02
  2.1298927e-01   2.5989182e-02
 -1.9879271e+00   7.5274758e-02
 -3.0461051e+00   8.7626912e-02
  1.3922452e+00   6.8139061e-02
  1.5361526e+00   5.4998036e-02
  7.2766042e-01   2.0253368e-02
  6.9879480e-02   5.6531172e-02
  1.6054295e+00   1.1950674e-01
 -1.0084898e+00   2.0883791e-01
 -8.1710833e-01   3.1438720e-01
 -1.8173246e+00   1.1890555e-01
  1.8746148e+00   9.7083896e-02
 -1.9073186e+00   7.8031912e-02
  3.6926298e+00   7.8061216e-02
 -5.2795649e-01   1.5078005e-01
  6.6355711e-01   5.3200461e-02
  1.0011394e-01   4.8957836e-02
  2.0202045e+00   5.0209560e-02
  6.9220388e-01   1.1420366e-01
  2.0471847e+00   7.5472534e-02
 -2.4859691e+00   3.7155923e-02
  9.3007043e-02   8.3461106e-02
  6.3940936e-01   1.1842638e-01
  4.4930989e-01   4.4306543e-02
 -1.0942475e-01   2.7215493e-01
  2.9792044e-01   1.6384413e-02
  1.6066220e-01   5.7936832e-02
  6.8622118e-01   1.1374079e-01
  9.2682445e-01   2.6840335e-01
  2.4613242e+00   7.1899302e-02
  6.2860471e-01   3.1342804e-02
  1.5505189e+00   1.3485956e-01
  1.5153037e+00   8.3697669e-02
 -1.6884708e+00   4.8008926e-02
  2.9810691e+00   8.6555287e-02
 -1.0461247e+00   3.3605948e-02
 -1.5138264e-01   1.8468747e-01
  1.4309033e+00   1.6733347e-01
 -1.2310270e+00   2.7597743e-01
  2.5229187e+00   6.7669332e-02
  1.6588020e+00   5.0144341e-02
  1.9684544e-01   1.1014505e-01
  1.4787778e+00   7.8790784e-02
  1.1874909e+00   1.0314651e-01
 -1.9595615e+00   2.7988734e-02
  4.7211671e-01   4.0417697e-02
  8.2208163e-01   1.0630250e-01
  6.7092884e-01   2.9749963e-01
 -2.0066971e-01   2.3951508e-01
  1.7009776e+00   4.9036471e-03
  9.5543480e-01   6.9958813e-02
  1.0398927e-01   2.3553129e-02
 -2.4110596e+00   4.7403369e-02
  1.1931639e-01   5.3794846e-02
  1.6065862e+00   4.4544283e-03
 -1.1735890e+00   8.2448730e-03
 -3.0483657e-01   8.4203165e-03
 -1.6250876e+00   1.8092027e-02
 -2.4793321e-01   6.3003735e-03
  8.9136548e-03   3.7615750e-02
  8.4156865e-01   5.4100927e-02
 -8.0497164e-01   4.3531589e-02
 -8.9712536e-01   5.8953125e-02
 -3.9753926e-01   1.7830208e-02
  1.4491548e-01   5.5384837e-02
 -5.1904273e-01   6.8705618e-02
 -1.2523369e+00   1.0709243e-01
 -2.5228661e-01   2.5107704e-02
 -2.1853738e+00   6.0678441e-02
  1.0192708e+00   2.2664886e-02
 -3.8171065e+00   3.6746528e-02
  9.3333727e-01   4.7028951e-02
  5.4455137e-01   9.8081693e-02
  1.0262448e+00   4.4460166e-02
 -2.9077940e+00   6.1298396e-02
 -1.9407138e+00   1.0975077e-01
 -4.6538034e-01   1.0441985e-01
  2.1889509e-01   7.1049891e-02
  1.4054586e+00   4.0217441e-02
 -3.1604550e+00   3.7784178e-02
  7.7408230e-01   7.3662363e-02
 -1.4591423e+00   1.3446818e-01
 -4.6509129e-01   1.3890293e-01
 -2.9464288e+00   3.1863332e-02
 -5.1769614e-01   2.0949580e-01
  4.2950362e-02   1.3320528e-02
 -6.2092251e-01   1.0744717e-01
  1.4827107e+00   7.2212964e-02
 -9.2518461e-01   3.5594888e-02
  9.4619703e-01   7.9761766e-02
 -4.0497559e-01   7.8518085e-02
  3.6696837e+00   7.9948090e-02
  2.7094953e+00   6.4410552e-02
  2.4662905e+00   1.5143061e-01
  1.4045557e+00   2.9689455e-02
 -8.8645107e-01   4.0096018e-02
 -1.5875255e-01   6.1989736e-02
 -1.1433520e+00   4.2415529e-02
  1.1573319e+00   5.6054547e-02
 -1.0353259e+00   3.8758434e-02
 -3.0644095e-01   5.1390089e-02
  3.9190570e-01   9.0051681e-02
  7.1210611e-01   2.1303871e-01
  7.3674567e-02   1.4368503e-01
  1.7784417e+00   1.4896946e-01
 -2.1098735e+00   3.5757586e-02
  1.1815853e+00   8.0351152e-02
 -3.4286836e-01   1.6400872e-01
 -8.4228301e-01   2.2023486e-02
 -1.6076893e+00   8.6672805e-02
 -6.4179665e-01   1.8034460e-01
 -1.0502846e+00   4.6665926e-02
  3.3830121e-01   1.2044653e-01
 -2.1570847e+00   7.5279698e-02
 -4.0861216e-01   8.9675173e-02
  3.7117133e-01   1.2651439e-01
  5.6868130e-01   4.8884887e-02
  9.5865130e-01   2.0839632e-01
 -2.4027543e-01   1.1645915e-01
  7.2597259e-01   1.6678266e-01
 -1.0282362e+00   2.6399750e-01
 -2.8860134e-01   1.4448391e-01
  6.6428691e-02   4.8715901e-02
 -3.1803647e-01   1.1203514e-01
 -4.1109076e+00   4.0204830e-02
 -1.6318101e+00   1.2339529e-01
  2.7354223e-01   6.8772830e-02
 -1.2138207e-02   2.7321512e-01
  5.8257455e-01   4.8497479e-02
  2.2205420e+00   7.8657255e-02
 -9.2555916e-01   6.4424604e-02
  3.4427452e+00   1.9271520e-01
 -1.1512691e+00   2.3338105e-01
  8.9856192e-02   1.2170570e-01
 -9.6440636e-02   7.8101270e-02
  4.6396488e-01   2.1100813e-01
  3.8541502e-01   4.0438719e-02
 -4.2916603e+00   1.5164031e-01
  5.6288958e-01   1.9102874e-01
 -2.7420545e-01   3.5817068e-02
 -7.2865136e-02   2.4260979e-02
  9.7064239e-01   6.0204968e-02
  3.7416539e-01   9.5430195e-02
 -4.9273384e-01   1.2160479e-01
 -2.7033939e+00   1.0508350e-01
  5.0120413e-01   1.4276074e-01
  1.5164319e+00   5.6846272e-02
  4.8780605e-01   1.2000906e-01
  7.7567589e-01   9.7878173e-02
  5.3215569e-01   7.4291185e-02
  9.2758939e-02   7.7552930e-02
  1.0636172e-01   4.0265344e-02
  1.8452517e+00   1.7811023e-01
  6.9038635e-01   1.7634732e-01
 -3.6246136e-01   1.9575897e-01
  8.3834094e-01   1.3626499e-01
  2.3670952e-01   1.2029851e-01
  5.4878265e-01   9.6505478e-02
  2.2531540e+00   2.7361143e-01
  1.1782424e+00   2.7173722e-02
 -3.7242469e-01   4.4665519e-02
 -1.7981832e-01   5.3441484e-02
  7.0711857e-01   5.7514612e-02
  1.8915665e-01   8.7736838e-02
  4.8700315e-01   4.6787437e-02
  1.8682888e+00   1.1290602e-02
  4.4564489e-01   1.9439863e-01
 -1.3584561e+00   4.4153105e-02
  9.0050913e-02   7.7950507e-02
 -2.2438865e+00   6.4758137e-02
 -1.0792930e+00   8.0320261e-02
  1.6081486e+00   1.2384569e-01
  1.9814733e-01   4.4000268e-02
 -1.0567810e-01   1.0278309e-01
 -9.7443742e-01   1.2703131e-01
  3.7626049e-01   1.2233505e-01
  1.8089902e+00   2.4681066e-01
 -2.0749700e+00   7.1014404e-02
  4.6809030e-01   5.1981289e-02
  1.5807894e+00   6.2651217e-02
  3.5942122e-01   1.4100279e-01
 -1.0921997e+00   6.3208088e-02
  6.4916879e-01   9.2959486e-02
  2.0307972e+00   3.7183009e-02
  2.5306651e-01   1.0073966e-01
 -6.3298345e-01   1.0273207e-01
 -1.0832924e-01   4.4251588e-01
  1.5215223e+00   6.5957062e-02
  1.6105063e+00   5.3393412e-02
 -1.6695145e+00   9.2084236e-02
  2.1765561e-01   5.9037518e-02
 -2.5066922e+00   7.8801557e-02
 -4.8238802e-01   2.0208282e-02
  1.4553770e+00   2.9813213e-02
 -2.2467666e+00   1.0048227e-01
  2.5569584e+00   1.3859317e-01
 -8.3375263e-01   2.2303876e-01
  5.3229237e-01   3.0134997e-01
 -2.8569877e+00   7.1831457e-02
 -3.9252684e-01   1.3656223e-01
  1.2424327e+00   8.4443577e-02
 -9.8419845e-02   1.3525897e-01
 -4.2754123e-01   8.5571729e-02
  1.0365932e+00   1.2908374e-01
 -1.7922460e+00   1.2429799e-01
 -2.5740004e+00   6.2439609e-02
 -2.8811712e-02   5.1629294e-02
 -4.6904331e-01   9.3763925e-02
  1.5039188e+00   1.9972514e-01
 -6.8335015e-01   1.1790663e-02
 -1.7174963e+00   4.0445770e-03
  3.8766560e-01   2.9631434e-02
  4.4471708e-01   6.5783806e-02
  5.8104122e-01   3.1736370e-02
 -1.2037523e+00   4.5722043e-03
 -2.4280102e+00   1.7662782e-02
 -7.6602578e-01   8.4919967e-03
  3.0519566e-01   1.0686995e-02
  5.2521491e-01   8.3056744e-03
  1.7757590e-01   4.7080982e-02
  1.8681505e+00   1.1457790e-01
 -6.8673503e-01   4.0020920e-02
  1.2583456e+00   1.7413425e-01
  1.1045493e+00   4.3328956e-02
  1.9983760e+00   8.7867029e-02
 -1.6358371e+00   1.1289023e-01
  8.9874417e-01   1.5411261e-01
  1.1245711e+00   3.0700611e-02
  1.6007346e-01   3.2206830e-02
  2.3042641e+00   5.0330877e-02
  2.5894382e+00   5.1283460e-02
  4.2237517e-01   7.9049885e-02
  9.8405188e-01   5.0730132e-02
  3.1114843e-01   5.2462578e-02
  4.2390677e-01   5.3667564e-02
  9.5510453e-01   1.4574781e-01
 -3.6945019e-03   6.5447293e-02
  4.6254140e-01   9.7709678e-02
 -8.6200887e-01   1.1481793e-01
 -1.0766572e+00   2.6969494e-02
  1.3253397e+00   3.4237597e-02
 -1.4693223e+00   6.7171313e-02
  2.2211382e+00   5.2758738e-02
  9.8328874e-02   1.2325184e-01
  1.3084048e+00   6.0115460e-02
  9.3007103e-02   8.1830479e-02
  4.2306030e-01   2.4287094e-01
 -5.0893801e-01   5.5602644e-02
  8.8823873e-01   9.6670203e-02
 -4.1633776e-01   8.1599817e-02
  6.6998595e-01   1.0055895e-01
 -3.2283134e+00   3.4771908e-02
 -1.6902010e+00   1.6074927e-01
  2.1464118e-01   8.1781074e-02
  7.5418729e-01   1.0110397e-01
  2.8414510e-02   7.8737445e-02
 -9.5220536e-02   2.7708027e-01
  1.1114502e+00   7.9068221e-02
  5.1815301e-01   1.0195802e-01
  1.4810930e+00   6.1169397e-02
  6.8461284e-02   1.6121713e-02
 -1.3580462e+00   4.6720337e-02
  6.4161614e-02   1.2600282e-01
 -4.3848705e-01   4.7090128e-02
  2.1571343e+00   9.1035731e-02
  1.8750716e+00   1.8496247e-02
 -9.4073951e-02   8.4314011e-02
 -7.3832744e-01   1.5284289e-01
 -6.1892873e-01   8.2057379e-02
  2.0259194e+00   4.7440160e-02
  2.8798227e+00   4.9743604e-02
 -4.3142495e-01   1.7132682e-01
  2.5641625e+00   7.5160295e-02
 -1.9051341e-02   6.7091189e-02
 -2.1055031e-01   1.0451207e-01
  1.4258686e+00   1.1961728e-01
 -2.5224745e+00   1.5327893e-01
 -3.4950513e-02   6.8830192e-02
  1.3956728e+00   7.7223592e-02
  1.8912475e-01   1.7244682e-01
 -7.3331702e-01   2.3725493e-01
  1.3092753e+00   9.2893280e-02
  1.2719271e-01   1.6296031e-01
 -8.6738385e-02   1.5986189e-01
 -1.6007377e+00   1.5672378e-01
 -5.3413790e-01   2.0257939e-02
 -2.1674736e+00   3.9073840e-02
 -1.1725099e+00   1.4741841e-01
 -1.0769659e-02   3.9565776e-02
 -9.0428799e-01   7.7757522e-02
  9.1712885e-02   2.1485145e-01
  2.7045706e-01   3.9303336e-02
 -7.7873433e-01   7.0144869e-02
 -2.8200798e+00   1.0617506e-01
  1.6617484e+00   5.9434544e-02
 -3.3100132e-02   1.3148175e-01
  4.3954134e-01   3.1303355e-01
  5.7059056e-01   1.3422531e-01
  1.1778110e+00   4.4412274e-02
  2.5909048e-01   3.3568278e-02
  1.6354402e+00   1.9077811e-02
 -8.0269790e-01   2.8937641e-01
 -8.6657566e-01   1.0118047e-01
  1.2173377e+00   2.6991731e-02
 -6.7968404e-01   6.6693857e-02
  2.1614361e-01   1.0956245e-01
  2.1291691e-01   1.3286076e-01
  8.6691815e-01   3.2709429e-01
  2.0773427e+00   3.9226610e-02
 -3.5069975e-01   3.0550979e-02
 -4.6254292e-01   2.2719127e-01
 -2.2527073e-02   1.4150155e-01
  1.9138671e+00   6.4424150e-02
 -8.4951782e-01   9.0924717e-02
  4.6192658e-01   1.0548225e-01
 -3.5292029e-01   1.0248192e-01
 -4.8924002e-01   4.2096581e-02
  4.7282201e-01   1.8336686e-01
  1.5411773e+00   8.6193033e-02
  2.6464060e-01   3.4046352e-02
  1.1690888e+00   1.6933851e-01
  2.6497264e+00   3.0534966e-02
  7.5130886e-01   6.5098122e-02
  2.9191118e-01   4.5794249e-02
  3.6051217e-01   1.6074914e-01
  5.5304784e-02   4.2313275e-01
 -1.3314521e+00   1.5163980e-01
 -1.0476984e+00   1.8445713e-02
 -2.9050772e+00   1.7264648e-01
  1.1573563e+00   6.6042788e-02
 -3.0870709e-01   8.6183660e-02
 -3.5003688e+00   5.0567012e-02
 -3.2956656e-02   5.6584969e-02
  1.1291400e-01   6.8512715e-02
 -2.7905502e+00   1.8458162e-01
 -2.8918430e-01   8.9965455e-02
  8.8891774e-02   1.7681253e-01
 -1.2658058e-01   1.1800595e-01
 -1.8354189e+00   1.4129128e-01
 -4.5959941e-01   1.1919907e-01
  1.1275283e+00   2.5450432e-01
  4.0050769e-01   6.0357466e-02
  1.3591079e+00   4.4769298e-02
 -5.2808917e-01   1.9576900e-01
  3.9023665e-01   1.0910802e-01
  2.6595718e-01   1.1082148e-01
 -1.6901671e+00   7.0489734e-02
  1.3114966e+00   5.1304430e-02
  4.7872190e+00   7.0606947e-02
 -7.1910846e-01   3.0019540e-01
  4.5280769e-01   1.6245015e-01
 -4.8900124e-01   4.7941625e-01
 -1.3643204e-01   2.7920070e-01
  3.7890198e+00   7.6226495e-02
  5.2773237e-01   2.2386122e-01
  7.3554480e-01   3.2215902e-01
 -9.6709943e-01   3.2852519e-02
  3.4812880e-01   2.6593750e-02
 -1.0288880e+00   3.5248611e-02
 -5.6844950e-01   2.2464834e-01
 -1.7655578e-01   6.0948651e-02
  1.1730146e+00   2.1549438e-01
  2.7848449e+00   1.8932991e-02
  1.5560791e-01   1.9421414e-01
 -2.7548656e-01   5.6537833e-02
 -6.6828406e-01   5.3259857e-02
  2.3114835e-01   1.0362921e-01
 -2.5056531e+00   1.1969907e-01
  2.7867205e-02   7.9686463e-02
  8.4742564e-01   5.7249651e-03
  1.5788419e+00   1.6971616e-02
  1.2688560e+00   8.1772201e-02
 -9.5845646e-01   8.0966555e-02
 -1.1577597e+00   4.0552314e-02
  2.7253814e+00   3.3599146e-02
  5.8948231e+00   2.3065522e-02
  2.3579675e-01   5.0155953e-02
  2.3275599e+00   3.2006923e-02
  5.1757801e-01   2.8609935e-02
  1.8190371e+00   3.5022926e-02
 -3.4090459e-02   4.9611732e-02
 -1.5197824e-01   1.3585758e-01
  9.0050101e-01   6.2388219e-02
  1.8195437e+00   3.4882948e-02
  4.3201533e-01   4.7242321e-02
  9.1819769e-01   5.6580529e-02
  1.7705661e+00   1.0172818e-01
 -5.0667357e-01   1.9381562e-01
  1.2823106e+00   1.0673624e-01
 -2.3720503e+00   4.6403896e-02
  8.4679562e-01   5.1008377e-02
  2.0124349e-01   4.3123171e-02
  3.9308542e-01   3.5479048e-01
 -9.3553597e-01   8.1433877e-02
  9.7322756e-01   8.8865809e-02
 -1.1176541e+00   6.1514188e-02
  9.3347681e-01   8.4787175e-02
  4.8789209e-01   6.3301153e-02
  1.1060824e+00   1.6097376e-01
 -1.5910800e+00   5.5219915e-02
 -3.9340726e-01   2.0508896e-01
  3.2952875e-01   1.2824981e-01
  2.0768136e-01   9.3776822e-02
 -6.2997609e-01   5.6010045e-02
 -3.9667943e-01   5.8010723e-02
  2.4721009e-01   4.4352386e-02
 -2.4025787e-01   2.8304067e-01
  1.7189100e-01   2.3102716e-01
 -1.0078254e+00   2.7207151e-01
 -9.6938223e-01   5.9141785e-02
 -5.6303179e-01   1.5145433e-01
 -8.6412811e-01   2.0988248e-01
 -2.6407926e+00   4.4447910e-02
  9.1215052e-02   2.5382500e-02
  1.3601149e+00   7.9526804e-02
 -2.3348655e-01   1.7612985e-01
  1.1150787e+00   5.7128288e-02
  2.9284862e-01   1.6950366e-01
  9.5938671e-01   1.1772242e-01
  3.9341552e+00   1.7557718e-01
 -8.5029595e-02   2.0965438e-02
  9.2063349e-01   1.3794613e-01
 -1.9621758e-01   4.2345434e-01
  1.4103366e-01   9.0542808e-02
 -4.2834422e-01   7.8360930e-02
  5.0069726e-01   5.9062351e-02
 -5.6680548e-01   2.7027711e-01
 -4.5037028e-01   2.5702834e-01
  1.6190432e+00   1.2475897e-01
  1.3393018e+00   1.3247533e-01
  1.2565540e+00   8.1886329e-02
  9.4878298e-01   1.6672543e-01
 -1.2237296e-01   1.0501557e-01
 -1.2981769e+00   1.7156978e-01
  4.9541467e-01   1.7962933e-01
  7.9637527e-01   6.4290047e-02
  1.4715507e+00   1.0572901e-01
 -2.8666830e-01   1.0999268e-01
 -1.1053344e+00   2.1352728e-01
  2.1457736e+00   5.6682241e-01
  1.4991825e+00   7.3050074e-02
 -2.3876281e+00   9.9882297e-02
  3.6454386e-01   4.1200387e-01
  8.7729681e-01   2.1893699e-01
  2.3719952e-01   2.0096103e-02
  1.9336948e-02   7.4306831e-02
 -2.2692981e-01   6.8120487e-02
 -4.6629295e-01   9.4301201e-02
 -1.5223016e+00   1.0317726e-01
 -5.8092201e-01   9.4671771e-02
 -4.6008959e-02   1.1122924e-01
  7.9703742e-01   1.3835904e-01
 -4.8881683e-01   2.1948761e-01
  7.0703948e-01   3.3219613e-02
 -1.7802478e+00   1.6917865e-01
 -1.6063073e+00   1.0291851e-01
  1.0029427e+00   2.9505607e-02
  9.2829323e-01   1.9406672e-01
  1.9724718e+00   5.2032311e-02
 -1.0056903e+00   1.3263977e-01
 -1.5319365e+00   1.1683402e-01
 -1.3628669e+00   1.8352793e-01
  2.0593172e-01   8.6152025e-02
  3.3634704e-01   6.1932033e-01
  1.1953213e+00   7.8365467e-02
 -1.7540036e+00   1.0716963e-01
  4.7522926e-01   1.6671956e-01
 -1.7235948e-02   1.8846007e-01
  1.1915262e+00   5.3275708e-02
 -4.9473643e-01   7.3817596e-02
  1.0750179e+00   5.3442381e-02
  9.8829615e-01   6.7780793e-02
 -2.7967277e-01   2.2104037e-01
  5.8324444e-01   1.9197701e-01
  6.1841443e-02   2.5080499e-01
  3.4291101e+00   1.2882851e-01
  2.4349589e+00   9.0476274e-02
  7.8354344e-02   1.5043201e-01
  3.0266276e-01   8.3321787e-02
  2.5155416e+00   4.9893469e-02
  1.8162283e+00   1.2699771e-01
 -2.0823789e+00   3.5649333e-02
  1.1826725e+00   1.0092954e-01
 -2.8547041e+00   1.1945644e-01
  1.1526105e-01   9.6778072e-02
 -1.0292544e+00   1.3054179e-01
  2.0566962e+00   9.3862690e-02
 -1.8182298e+00   3.8209606e-02
  3.0621940e-01   2.2424806e-02
 -5.6554437e-02   8.6687766e-02
  4.1372445e-01   4.6438467e-02
  2.8671622e-02   1.0645754e-01
 -4.6797645e-01   5.2428152e-02
 -1.0753185e+00   1.2179326e-01
  1.3563416e+00   9.4324246e-02
 -2.4996824e+00   1.0325540e-01
  1.5524384e-01   1.3795540e-01
 -5.0085908e-01   1.4018035e-01
 -2.0373478e+00   9.8382354e-02
  1.2243646e+00   9.1354221e-02
  8.4934133e-01   5.8645595e-02
  9.2190689e-01   1.6586562e-01
  2.5680206e+00   1.5817490e-01
 -1.9347541e+00   1.2149587e-01
  1.0822244e+00   6.4545758e-02
 -2.8034353e+00   1.3572423e-01
  7.7023983e-02   7.6304466e-02
 -7.2507805e-01   1.1581559e-01
 -7.1042812e-01   7.4387088e-02
  4.0976936e-01   7.4922688e-02
  6.2460375e-01   1.1972585e-01
  2.9076487e-02   1.8184891e-01
 -8.7740046e-01   7.5199582e-02
  1.0121958e+00   1.9135062e-02
 -3.9706286e-02   5.3843640e-02
 -4.4535529e-02   2.1399185e-02