 -1.3550395e+00   1.9216132e-01
  2.0513518e+00   1.8085769e-01
 -1.1001108e+00   5.5601612e-02
  8.5082442e-01   8.0972463e-02
  4.2937845e-01   1.4050154e-01
  8.5030235e-02   7.3538408e-02
  9.7793007e-01   7.1362272e-02
  2.0771565e+00   1.1418158e-01
  5.6368834e-01   1.2916127e-01
  3.3253565e-01   2.1627729e-01
  2.0470748e+00   4.9214941e-02
  1.0333908e+00   1.3013525e-01
  7.5234365e-01   9.4702452e-02
  2.4803367e+00   3.3500124e-02
  3.4736621e-01   7.9683416e-02
  1.2334396e+00   4.4062357e-02
 -1.1861616e+00   4.8316650e-02
 -7.1261269e-01   2.7454543e-01
 -1.8207293e+00   1.1411016e-01
  3.0764570e+00   1.0179041e-01
 -5.4443443e-01   9.2902802e-02
  1.3992147e+00   7.3480234e-02
 -2.9221094e-01   4.2236102e-01
  4.4164714e-01   3.2992106e-02
 -4.5809856e-01   3.9216958e-02
  5.0184882e-01   2.4798436e-01
 -4.0206474e-01   2.4785507e-01
 -4.2593203e-02   7.1308948e-02
 -1.4013753e+00   7.0517570e-02
 -2.1833119e-01   1.7109146e-02
  6.7728573e-01   8.2240678e-02
 -1.7733635e+00   3.0921470e-02
 -8.4547174e-01   3.2725267e-02
 -7.4413466e-01   5.6982618e-02
  1.4482323e+00   6.1654203e-02
  1.5181365e+00   3.1209271e-02
  2.5717463e+00   3.4650229e-02
  1.8695731e-01   6.7138419e-02
 -4.8796323e-01   4.4073198e-02
 -3.0819471e+00   2.5192652e-02
 -1.8702869e+00   5.0442696e-02
 -2.0432711e-01   2.9066145e-02
 -3.8596055e-01   1.6176434e-01
 -1.6690538e+00   4.3390661e-02
 -4.5587450e-02   5.4482225e-02
 -1.8074248e+00   2.2364093e-02
  1.9754648e+00   3.5401907e-02
  4.3313369e-01   4.0558644e-02
 -3.6187985e+00   6.2892355e-02
  1.2892115e+00   6.1713904e-02
 -1.1551194e+00   2.4678877e-02
  8.7847382e-02   7.7677861e-02
  5.4994528e-03   3.5746489e-02
  1.0243686e+00   8.2491688e-02
 -5.1465333e-01   8.3113886e-02
  1.9581819e+00   1.8962204e-02
 -2.3408438e-01   1.8797143e-01
 -4.4786757e-01   1.0863361e-01
  1.5814993e+00   1.9976613e-01
 -8.8776779e-01   6.7203715e-02
  7.9530694e-02   7.3177785e-02
 -2.8022346e+00   7.5433895e-02
  6.5862244e-01   1.4651355e-01
  1.3041750e+00   2.6896430e-02
  1.5503430e-01   1.0952809e-01
 -8.8884860e-01   1.0712815e-01
  4.4132355e-01   4.7705512e-02
  9.3872559e-01   1.4627869e-01
 -1.7618756e+00   6.9999881e-02
  4.9738324e-01   2.8858671e-01
  1.4280291e+00   1.1853504e-01
  4.0811306e-01   1.3177682e-01
  3.2060760e-01   2.4711099e-02
 -3.9140043e-01   4.3262601e-02
  1.8197602e+00   8.2427509e-02
  5.2319604e-01   7.1112663e-02
  1.5453757e+00   8.6766265e-02
 -3.0188398e+00   8.9182757e-02
 -1.9532564e+00   1.3857265e-01
  6.0294420e-01   1.7620657e-01
 -1.6026423e+00   4.9224947e-02
  8.7316078e-01   7.9546839e-02
  2.5459963e-01   1.6528651e-01
  1.2239344e-01   1.2212664e-01
 -5.3122973e-01   1.7066693e-01
  1.6153380e-01   2.9318964e-02
  2.4468234e+00   1.1080640e-01
 -1.5809344e+00   3.2995660e-02
 -1.0520450e+00   6.1012633e-02
 -7.3754877e-01   2.1752691e-02
 -4.6010342e-01   6.3597858e-02
 -9.8477292e-01   1.0293766e-01
 -6.6871428e-01   6.6164978e-02
 -4.3926543e-01   8.3306476e-02
 -9.5157218e-01   4.7430195e-02
 -1.3527851e-01   9.0109035e-02
  1.2072691e+00   8.9219771e-02
  1.3935653e+00   5.4427695e-02
 -1.4199669e+00   5.2113909e-02
 -2.4918486e-01   5.2978393e-02
  1.9700738e+00   1.0119509e-01
  4.9190792e-01   7.7514738e-02
 -5.4989368e-01   2.8845167e-01
 -3.0219991e+00   7.1407810e-02
  1.0840629e-01   5.3419363e-02
  2.4033036e+00   1.0058531e-01
 -2.2699559e-02   2.1903655e-01
  6.3859493e-01   1.0241856e-01
  1.5324825e+00   6.4529739e-02
 -2.3515377e+00   1.0572416e-01
 -8.1988639e-01   5.2732125e-02
  1.6017908e+00   5.2945498e-02
  4.4955319e-01   8.8480160e-02
 -6.6075361e-01   2.0567431e-01
 -1.8684329e+00   7.7265404e-02
 -7.0455909e-01   9.2522629e-02
  3.2499545e+00   1.0253105e-01
  1.7167432e+00   5.9904870e-02
  1.1338301e+00   5.5876318e-02
 -4.2663276e-01   1.1944824e-01
  9.7673714e-01   2.9071381e-02
  4.3276718e-01   9.3392273e-03
  1.8868025e-01   3.5794120e-02
 -5.7771665e-01   1.8875767e-02
 -1.4536477e+00   4.7017653e-02
  8.0587488e-01   3.1923287e-02
  3.2264911e-02   5.1659204e-02
 -4.8396981e-01   2.4738964e-02
  1.7690059e+00   1.3645012e-02
 -5.9085351e-01   1.9468527e-02
  2.0355723e+00   5.1936597e-02
  1.2040985e-01   7.7308655e-02
 -1.3592247e+00   2.8266469e-02
 -1.1284943e+00   5.4652214e-02
 -4.2239064e-01   3.2037105e-02
  9.8091280e-01   7.3666766e-02
 -8.4597273e-03   1.2946528e-01
  5.8792710e-01   6.2945940e-02
 -5.2304697e-01   9.9140406e-02
 -1.1961581e+00   8.3591372e-02
  2.3766284e+00   1.8701376e-02
 -5.2900279e-01   4.8469450e-02
  1.0499727e+00   4.2166870e-02
 -1.8940096e+00   3.1983186e-02
  1.4996886e-01   4.9167890e-02
 -1.1894897e+00   1.1849245e-01
  1.0087247e-01   1.0893016e-01
  1.6559042e-01   7.2968051e-02
  8.1591266e-01   1.4392556e-01
  2.0071533e+00   8.6008959e-02
 -1.3006152e+00   1.5558544e-02
 -3.4497422e-01   1.0494035e-02
  2.0923061e+00   8.7420449e-02
 -4.3815603e+00   5.4099385e-02
 -7.5742054e-01   5.4208785e-03
 -7.6969886e-01   1.2591250e-03
 -7.9840189e-01   2.4388116e-03
 -3.7447771e-01   2.1119528e-03
 -1.8765401e+00   1.5494975e-03
 -1.1118369e+00   2.2554321e-03
  1.0811379e+00   9.6422909e-03
 -5.3454137e-01   1.9541979e-02
 -1.0138724e+00   1.3492661e-02
 -9.5294380e-01   3.1941864e-03
 -3.3292454e-01   6.6236421e-03
 -1.9910467e+00   4.9631469e-02
 -5.1245624e-01   1.4657505e-02
 -2.7896696e-01   1.3587353e-02
 -1.6040367e+00   4.5875918e-02
 -7.2607112e-01   3.3959232e-02
  1.3812757e+00   9.8614627e-03
  1.7350972e+00   6.4814645e-03
  6.8462893e-02   8.4042735e-03
 -3.6644189e+00   5.8842339e-03
  5.9090495e-01   1.1311404e-02
  1.7418522e+00   5.7308506e-03
  3.0441475e+00   1.2586189e-02
  6.5603822e-01   1.4131162e-02
 -2.8955426e+00   9.2782862e-03
  1.1368437e+00   3.1380817e-02
 -2.0504794e+00   7.3949159e-03
  8.8451010e-01   3.8281491e-03
  1.1890974e+00   1.0178944e-02
  1.1453917e+00   6.6444571e-03
  2.6839787e-01   1.9046487e-02
  3.3532658e+00   1.0603792e-02
 -3.4179358e+00   1.4251268e-02
  4.2759905e+00   5.2159782e-02
 -2.6467338e+00   3.1252049e-02
 -1.4442804e-01   8.0737382e-02
 -2.1502576e+00   1.0140255e-02
  1.9489619e+00   1.9298084e-02
 -2.3365252e+00   2.1810787e-02
 -2.9548833e-01   7.4092788e-03
 -2.3571618e-01   8.2366504e-03
  3.0876938e-01   5.1464457e-02
  1.0657544e+00   1.6499637e-02
 -8.1703842e-01   1.1838345e-02
  4.2610708e-01   4.3659341e-02
 -5.9026289e-01   3.9521765e-02
  1.7773938e+00   1.3697226e-02
 -1.0984275e+00   1.0206176e-02
 -1.7185358e+00   2.2463037e-02
 -1.2635639e-02   1.1446921e-02
 -3.7706909e-01   2.1804769e-02
  6.0712397e-01   1.1874538e-02
  6.7269009e-01   1.1681746e-02
 -7.8898795e-02   1.8632961e-02
  8.7514363e-02   8.4358361e-03
  2.0954792e+00   1.9452134e-02
  3.0720906e+00   1.1170674e-02
 -9.0382963e-01   1.6570630e-02
 -5.2762595e-03   1.7739119e-02
 -1.1528344e+00   7.2446391e-03
  6.6462564e-01   1.9208996e-02
 -2.4897239e+00   4.5126371e-02
 -2.6743655e+00   3.8747054e-02
 -1.1874845e+00   4.6569634e-02
 -1.2093275e+00   5.8711682e-02
  1.6197337e+00   5.7632174e-02
 -1.5025156e+00   1.4853679e-02
 -4.3473384e-01   2.4948124e-02
  5.5107123e-01   6.3611537e-02
  3.4707555e-01   1.0054680e-02
  1.0349717e+00   1.1530127e-02
  1.9568473e+00   9.3886085e-02
  1.0358690e+00   3.5723977e-02
  1.2653648e+00   5.6898843e-02
 -6.5032774e-01   2.7119815e-02
  1.2728097e+00   3.4491137e-02
  2.4430077e+00   2.7898733e-02
  2.1049941e+00   4.6042737e-02
 -1.0467274e+00   2.2635471e-02
  9.7667843e-01   3.8223077e-02
  6.2178355e-01   4.0916000e-02
  1.2374412e+00   2.1858726e-02
 -5.3934422e+00   4.8321258e-02
  5.8530879e-01   2.5588458e-02
  1.0054544e+00   2.1663848e-02
  5.6673974e-01   1.0943981e-01
  1.0868250e+00   2.0476140e-02
  1.9615098e+00   2.3338303e-02
 -1.4024479e+00   2.8089901e-02
 -6.8258077e-01   2.0989735e-02
  2.6602435e+00   1.0297742e-01
 -7.6208633e-01   1.0134225e-01
 -1.5317752e+00   1.1923213e-01
 -4.7798681e-01   1.2413286e-01
  1.9861416e+00   1.1510368e-01
 -2.6328681e+00   7.9775065e-02
  7.4899316e-01   1.2539966e-02
 -1.1283301e+00   2.2780163e-02
  2.5103369e-01   1.2608419e-02
  1.0206480e+00   6.2954547e-03
 -1.5119379e+00   9.9931275e-03
 -1.0833715e+00   3.4785815e-02
 -2.0234354e+00   3.1853504e-02
 -7.7825201e-01   1.7574886e-02
 -1.1931422e+00   1.0193198e-01
 -2.1523993e+00   9.7922929e-02
 -3.1472702e+00   3.8836051e-02
  6.9959301e-01   3.2783005e-02
  2.4194276e-01   2.4770567e-02
  1.3220433e+00   1.7172620e-02
 -8.6649203e-01   3.0479962e-02
 -6.2089562e-01   2.1472862e-02
  6.2179667e-01   5.0968260e-02
  2.7161484e+00   1.2030754e-02
 -1.2972853e+00   2.3240661e-02
 -3.9881769e-01   4.0689345e-02
 -1.7685239e+00   1.9548533e-02
 -7.6824510e-01   2.6398512e-02
  4.9704269e-01   1.6049851e-02
  8.3795595e-01   1.9622834e-02
  1.2522325e-01   3.9901976e-02
  3.4737475e+00   7.5480558e-02
  2.0458442e-01   6.7950539e-02
 -2.8255649e+00   4.2815182e-02
 -3.3574867e-01   9.4429061e-02
  6.5263706e-01   1.3301003e-01
 -3.0752759e+00   1.2722921e-01
 -4.4346052e-01   2.2262819e-01
 -6.8217926e-02   4.7165427e-02
 -1.9071621e-01   6.2368434e-02
  1.0706934e+00   2.3673236e-01
  4.2421895e-01   3.0248255e-01
  7.6222396e-01   2.2185765e-01
  1.7505920e+00   9.8662749e-02
 -9.1236031e-01   5.6150377e-02
  3.5141668e-01   1.5343502e-01
  8.8612962e-01   1.0200921e-01
  3.7426460e-01   1.9562483e-01
  4.9438325e-01   5.6429796e-02
  1.7056082e-01   8.1826217e-02
 -9.4670534e-01   4.4205062e-02
 -2.4303119e+00   8.9609414e-02
 -4.3493074e-01   9.7673468e-02
 -1.2939021e-01   4.5453213e-02
 -2.5773327e+00   1.2238337e-01
  2.6682603e-01   2.1035419e-01
 -4.0121150e-01   4.7227733e-02
  6.4799911e-01   1.9963485e-01
 -1.7691404e+00   4.5955118e-02
  6.3831663e-01   2.9836434e-01
  4.5037131e+00   7.4151605e-02
 -4.7013834e-02   9.6021272e-02
 -3.4108782e-01   5.0480515e-01
 -5.2535856e-01   1.5659700e-01
 -2.8806856e-02   5.1615350e-02
 -6.0879451e-01   2.4252447e-01
  1.3046482e+00   2.0550538e-03
  5.0404978e-01   2.9279669e-03
  5.7358897e-01   3.7734837e-03
 -6.0176486e-01   2.8201581e-03
 -9.9599183e-01   6.0241766e-02
  3.7459257e+00   4.0031862e-03
  1.8727438e+00   3.6903245e-03
  1.3967829e+00   3.3519696e-03
 -2.5872209e+00   3.0424588e-03
  6.0743685e-03   3.3580947e-03
 -1.2939410e+00   3.5452373e-02
 -8.5828424e-01   4.9433231e-02
  2.1066124e+00   2.1189611e-02
 -1.0101827e+00   2.6586786e-02
 -9.7977185e-01   6.4234100e-02
  1.9217600e+00   4.6539012e-02
 -1.2122707e+00   2.6263094e-02
 -6.0898298e-01   2.3951732e-02
 -2.0264866e+00   6.1536778e-02
  1.7837764e+00   7.0366986e-02
  3.5798702e-01   5.9833821e-02
  1.7553797e-01   4.7207985e-02
  5.9725988e-01   4.5396637e-02
  3.2331381e+00   5.3810995e-02
  1.2239094e+00   5.3493671e-02
  3.7771431e-01   2.1777639e-02
  1.3695465e+00   4.5660451e-02
  4.8821771e-01   5.0736092e-02
 -1.8696161e-01   2.9049728e-02
  1.7191106e+00   6.5236963e-02
  1.2144972e+00   3.0937824e-02
  2.7081175e+00   6.1433192e-02
 -1.7115905e+00   4.3172453e-02
 -1.3397499e+00   4.3189175e-02
  4.8954102e-01   4.3056682e-02
  7.0565069e-01   6.5688342e-02
  6.2935287e-01   8.7246522e-02
  1.3877225e+00   1.5835962e-01
 -2.7927256e-01   6.7029752e-02
 -4.7445989e-01   3.4938131e-02
  8.8071279e-02   4.5382574e-02
  9.4571948e-01   2.3287344e-01
 -1.1692563e+00   6.1890341e-02
  2.7494242e+00   1.0799844e-01
  7.0883557e-02   2.2763327e-01
  1.1581471e+00   4.1724812e-02
  1.2027259e-01   1.9525181e-01
  7.4901330e-01   1.5953809e-01
  2.0688088e+00   1.1317882e-01
  1.3581736e-02   1.6174805e-01
  9.7327816e-01   7.5329199e-02
  1.8482428e+00   7.4503317e-02
 -2.5343149e+00   5.5694025e-02
  2.6163357e-01   5.6277458e-02
 -1.4119736e+00   7.4631713e-02
 -1.3456991e+00   1.5645000e-01
 -7.2952586e-01   5.1597424e-02
  5.1079047e-01   8.4689908e-02
  4.3185800e-02   1.8901670e-01
 -1.1795236e+00   2.9232411e-02
  5.7274912e-02   1.0642018e-01
 -2.4289380e-01   6.1012410e-02
  3.5180515e-01   1.0742225e-01
  6.7037810e-03   1.4674568e-01
  4.9496476e-02   7.6887295e-02
  9.2823453e-02   1.1208953e-01
 -2.9962239e-01   3.8542338e-02
  1.6739050e+00   1.8767892e-01
 -2.2525315e+00   2.8231494e-02
 -6.9522373e-03   2.7078971e-01
 -1.0432253e+00   1.4351328e-01
  1.8616283e+00   2.1719250e-01
  1.2539746e+00   4.2800035e-02
 -9.3290830e-01   7.3289841e-02
 -1.3718551e-01   6.7863159e-02
  1.1964201e+00   9.1332935e-02
  3.1208807e-01   6.0834911e-02
 -3.3464786e-01   2.2821900e-01
 -1.9177220e+00   1.7566328e-01
 -5.9773277e-02   1.5953669e-01
  1.3924034e+00   8.1621923e-02
 -6.9692478e-02   2.5463894e-01
  4.8369008e-01   8.4520675e-02
 -2.1970961e+00   2.3304203e-01
  4.4370183e-01   6.9263399e-02
  1.4580308e-01   5.5010024e-02
  5.7210523e-01   1.0305563e-01
 -1.3652668e+00   7.3791109e-02
 -1.5235126e+00   2.6742870e-01
  4.6033901e-01   7.3337361e-02
 -3.0921581e+00   4.6136659e-02
 -6.7736411e-01   7.4232630e-02
  2.9326620e-02   9.0102315e-02
  7.1355265e-01   1.3189547e-01
 -2.5228244e-01   4.5343928e-02
 -7.7724969e-01   1.4234085e-01
 -1.1405642e+00   4.5833007e-02
 -3.1681147e-01   2.9787429e-02
 -2.0241001e+00   4.1389439e-02
  1.1650791e+00   1.9296189e-01
 -1.1607833e-01   2.7928272e-01
 -8.0744582e-01   1.7415455e-01
 -9.9671006e-01   2.5878729e-02
 -3.1239101e-01   1.7440815e-01
  1.9769347e+00   1.2439270e-01
  7.7382721e-02   7.3400915e-02
  3.1856123e-01   1.1399283e-01
  2.5351136e+00   7.3427796e-02
 -1.4936582e+00   1.3132033e-01
  3.2520500e-01   5.5938244e-02
 -1.8300366e+00   9.4722949e-02
  5.5982137e-01   3.8158931e-02
 -7.1714509e-01   8.3453827e-02
 -3.2686439e+00   7.8043528e-02
 -8.7910958e-02   6.1728723e-02
  2.7064981e+00   9.3547657e-02
  8.9917439e-01   2.3458192e-02
  1.3781816e+00   5.3399179e-02
  1.3453370e+00   1.1461924e-01
 -1.5974213e+00   1.1784086e-01
 -3.5611412e-01   3.2186890e-01
 -1.7467989e+00   1.1083385e-01
  8.3374357e-01   1.2293669e-01
 -1.2310977e+00   1.1872315e-01
  1.8057833e+00   7.4719265e-02
  2.4752337e-01   1.2666051e-01
  2.3214309e-01   5.3075664e-02
  2.9675820e-01   6.2052626e-02
  3.8171503e-01   8.6864881e-02
  2.3536782e+00   6.9762737e-02
  2.2530937e+00   5.1689714e-02
 -1.5799676e+00   8.6582310e-02
 -3.4352474e-02   1.1238210e-01
 -7.6800831e-02   1.1047192e-01
  7.3975402e-01   4.8076868e-02
  1.0734177e+00   2.3530985e-01
  2.1622136e-01   1.2323374e-02
 -4.0273347e-01   6.8873622e-02
  1.0371190e+00   1.4170766e-01
  5.4977059e-01   2.2508983e-01
  7.1828419e-01   8.3903998e-02
  8.7909383e-01   2.8256781e-02
  9.6372330e-01   1.7220700e-01
  1.4156030e+00   7.4751131e-02
 -1.2065064e+00   5.0194770e-02
  9.3990159e-01   1.0292064e-01
 -4.6803012e-01   3.7522651e-02
  4.4829264e-01   1.4682099e-01
  1.9929967e+00   1.2980141e-01
  1.1220410e-01   2.3831937e-01
  2.7787607e+00   8.0172405e-02
  1.0228015e+00   5.4617677e-02
  7.3848611e-01   1.3417256e-01
  2.2597044e+00   7.2876029e-02
  1.1531560e+00   8.6917587e-02
 -2.2490675e+00   3.2784902e-02
  1.0680308e-01   4.8110075e-02
 -5.4554927e-01   1.3969202e-01
  1.3114646e-01   1.4448844e-01
 -6.5558833e-01   2.0597868e-01
  1.7118926e+00   7.4611786e-03
  1.5185974e+00   1.1151591e-01
 -2.4566546e-01   2.2148302e-02
 -3.1216407e+00   6.7032240e-02
  9.0829360e-01   7.1001314e-02
  1.5745664e+00   5.0215749e-03
 -1.2316864e+00   1.0240254e-02
 -2.7083638e-01   1.3735451e-02
 -1.7887914e+00   1.4951850e-02
 -2.3861580e-01   8.8585252e-03
  9.0724802e-01   5.3060751e-02
  5.1306313e-01   4.1590989e-02
 -3.5907102e-01   4.3379266e-02
 -4.2138043e-01   7.8683950e-02
 -1.1578041e-01   1.9766880e-02
 -1.6499662e-01   8.5832573e-02
 -1.4568744e+00   7.3115587e-02
 -1.8664062e+00   9.4016850e-02
  4.2028716e-01   3.8789116e-02
 -1.8476387e+00   5.6675304e-02
  1.2033414e+00   3.2228585e-02
 -3.9858065e+00   6.4887002e-02
  1.3498601e+00   4.2523827e-02
  1.7651272e+00   6.7069992e-02
  1.5228554e+00   8.0593675e-02
 -1.3201162e+00   6.2890895e-02
 -2.4599655e+00   1.1985043e-01
  6.1474800e-01   6.3861832e-02
  5.3883284e-01   9.5890790e-02
  1.2304591e+00   4.3211877e-02
 -3.0082011e+00   2.8030634e-02
  9.2779040e-01   5.7096027e-02
 -1.8355812e+00   7.6645285e-02
 -1.1699414e+00   1.2189236e-01
 -2.7096925e+00   3.4737628e-02
 -1.3421479e+00   2.6683199e-01
 -7.5884104e-02   1.7769277e-02
 -6.6547137e-01   1.3705246e-01
 -1.2627998e-02   1.0547105e-01
 -1.4109225e+00   7.8059807e-02
  3.9322302e-02   1.0362868e-01
  2.0288557e-01   7.8210875e-02
  3.5270214e+00   6.2331222e-02
  3.1294918e-01   1.2675884e-01
  1.4096775e+00   9.1819763e-02
  1.5650722e+00   4.0473245e-02
 -1.1802245e+00   3.0441537e-02
 -3.9895180e-01   7.0943639e-02
 -1.0000544e+00   5.3527649e-02
  5.9045327e-01   7.3136158e-02
 -6.5789223e-01   6.0229979e-02
 -2.9918358e-01   4.6548855e-02
  1.3538339e-03   9.6595302e-02
  2.0531848e-01   1.9293003e-01
 -1.0346709e+00   1.4406529e-01
  1.7533485e+00   1.5707803e-01
 -1.8507144e+00   3.7085619e-02
  1.1414727e+00   8.4720537e-02
 -1.7282492e+00   1.5047856e-01
 -8.8242805e-01   2.7824195e-02
 -2.1707284e+00   1.0429937e-01
  1.1009372e+00   1.8767898e-01
 -4.6284837e-01   4.1634694e-02
 -2.9867491e-01   1.1389935e-01
 -1.2191163e+00   6.0587712e-02
 -1.3300576e+00   1.1897715e-01
 -1.2931584e-01   1.0059911e-01
  3.1534714e-01   5.5893436e-02
 -1.0303762e-01   1.7343098e-01
 -5.5041742e-01   1.3362783e-01
 -3.1183204e-01   2.1518998e-01
 -9.0307283e-01   2.0845219e-01
 -1.3278238e+00   8.5720576e-02
  1.8582352e-02   7.3593624e-02
 -3.9498934e-01   1.5623361e-01
 -3.6337180e+00   5.7199936e-02
 -1.8311832e-02   1.5003990e-01
 -1.9404367e-01   6.9145896e-02
  7.4813193e-01   3.9289305e-01
  1.5258026e-01   6.1971251e-02
  1.0874922e+00   1.0785341e-01
 -5.7507968e-01   7.8724012e-02
  8.5537946e-01   1.6304080e-01
 -9.9245632e-01   2.7767143e-01
 -1.3116065e+00   1.3803501e-01
  2.8951076e-01   9.0194084e-02
  4.7080600e-01   3.1538936e-01
 -1.6009137e-01   5.9806284e-02
 -2.1466463e+00   1.4136425e-01
 -7.5245374e-01   1.6597769e-01
 -9.1338199e-01   4.7245562e-02
  6.7495477e-01   2.5802050e-02
  3.8394210e-01   6.7290872e-02
 -5.5739272e-01   1.0541888e-01
 -1.9934222e-02   7.7729985e-02
 -7.3979449e-01   9.2167526e-02
  4.9243903e-01   1.0295935e-01
  1.8157600e-01   6.1167855e-02
  1.9916467e-01   1.3394083e-01
  1.0908430e+00   6.6350222e-02
  1.0795950e+00   7.3919900e-02
 -1.2320307e+00   7.5857215e-02
  2.1719255e-02   6.0810361e-02
  1.4386693e+00   1.2327753e-01
 -2.3547316e-01   2.2217822e-01
 -8.8509202e-02   2.4270263e-01
 -1.1676978e+00   1.6021644e-01
  1.3169081e+00   9.9021293e-02
 -1.6872033e+00   1.2282152e-01
  3.0699067e+00   3.3408293e-01
  8.4267557e-01   4.2650174e-02
 -6.3082731e-01   3.8184661e-02
  7.3886055e-01   5.6653235e-02
  1.0673814e+00   7.5719967e-02
  4.6275851e-01   7.0061736e-02
  7.9544407e-01   4.5185544e-02
  1.6516852e+00   1.3755121e-02
 -1.5572418e-01   1.2988088e-01
 -3.9376211e-01   5.5836834e-02
 -9.9409431e-01   1.2314631e-01
 -2.6356251e+00   8.2431220e-02
 -9.8175645e-01   9.6988276e-02
 -6.7659415e-02   1.3176878e-01
  8.6484146e-01   3.2016493e-02
  5.2657354e-01   1.2347441e-01
  2.6310065e+00   7.3107637e-02
  1.2901123e+00   9.5261820e-02
  9.3059146e-01   1.7264915e-01
 -1.0439935e+00   5.7972319e-02
  1.3109958e+00   4.7052026e-02
  1.8310956e+00   3.9917968e-02
 -2.1406710e+00   1.3166572e-01
 -1.7254866e+00   5.2519515e-02
  7.4280846e-01   7.4542224e-02
  1.5954255e+00   5.6692552e-02
  4.9112037e-01   9.1723852e-02
  5.4994112e-01   7.4892581e-02
  3.3410421e-01   2.0985664e-01
  2.2429699e-01   6.4394414e-02
  5.6593847e-01   5.3598743e-02
 -1.7306606e+00   1.1110020e-01
  1.1865489e+00   6.0800340e-02
 -3.7697179e+00   8.6648375e-02
 -8.3070469e-01   3.8217694e-02
  1.3346047e+00   2.6803572e-02
 -1.9282811e+00   1.3541847e-01
  2.9362774e+00   1.3532472e-01
  9.0036595e-01   1.9893658e-01
 -3.9656559e-01   1.7803146e-01
 -2.6645539e+00   1.0109624e-01
  1.3539562e+00   1.0559946e-01
  1.3781159e+00   9.3765013e-02
  2.9692698e-01   1.7790923e-01
 -4.6091869e-01   1.1246438e-01
  1.9853522e+00   1.1324616e-01
 -1.2059379e-01   1.2244598e-01
 -1.8860708e+00   4.2408701e-02
 -9.2554465e-02   8.0742307e-02
 -1.9041309e-01   7.7440158e-02
  1.8875412e+00   1.6345657e-01
 -4.5158124e-01   1.5021991e-02
 -1.7178737e+00   6.1714030e-03
  4.4142956e-01   4.7953341e-02
  5.1459491e-01   7.9688072e-02
  8.3262020e-01   7.2557412e-02
 -1.2168825e+00   4.3940167e-03
 -2.3415296e+00   1.9617116e-02
 -7.8487229e-01   1.1088295e-02
  3.0392638e-01   1.2891137e-02
  4.7651166e-01   1.1057833e-02
 -7.2835147e-01   5.4577008e-02
  5.4100513e-01   1.2921511e-01
 -1.2094415e+00   4.4016600e-02
  6.4928967e-01   1.1545914e-01
  1.5300361e+00   4.1753076e-02
  1.1556308e+00   1.0190911e-01
  1.9053780e-01   1.1892807e-01
 -2.3409195e-01   1.3128860e-01
  1.2309822e+00   3.6598984e-02
  3.2283515e-01   5.6242160e-02
  2.9269116e+00   8.5035197e-02
  4.2365643e-01   7.7523448e-02
  1.4683665e-01   5.9305195e-02
  1.2567518e+00   5.7347104e-02
 -1.9613056e-01   7.7573247e-02
  3.1852809e-01   4.2220835e-02
  9.4528449e-01   1.3563065e-01
 -4.4738719e-01   1.1159396e-01
 -2.7066085e-02   7.2544724e-02
 -1.7910470e-01   1.3602388e-01
 -4.8467141e-01   5.9400979e-02
  6.6339719e-01   4.9278446e-02
 -9.9561614e-01   7.6135084e-02
  2.1393244e+00   6.7207284e-02
 -1.1399530e+00   1.0220100e-01
  1.2777610e+00   5.3099331e-02
  2.9057539e-01   6.0091559e-02
  1.4720410e-01   2.4031162e-01
 -2.7318490e-01   4.9496140e-02
  4.4899240e-02   1.1406100e-01
  6.8427166e-03   1.0031006e-01
 -1.6640899e-01   1.1770599e-01
 -3.3728783e+00   7.3796459e-02
 -1.7527466e+00   1.8428251e-01
  6.8374771e-01   1.0908400e-01
  8.7395936e-01   1.1513250e-01
  4.0069114e-02   1.1822002e-01
 -3.6032027e-01   1.1032576e-01
  6.8748260e-01   7.6369040e-02
  1.6398585e+00   1.0105640e-01
  1.4629494e+00   8.6676046e-02
  2.8400132e-01   2.5431277e-02
 -9.8980314e-01   7.4195899e-02
  7.5913930e-01   1.4174283e-01
 -9.0528119e-01   5.2514270e-02
  3.0134132e+00   1.1873341e-01
  2.1912313e+00   4.2561881e-02
 -9.9182147e-01   6.7658819e-02
 -4.1488656e-01   1.4415862e-01
 -5.1804370e-01   8.5030049e-02
  1.8398355e+00   5.7160426e-02
  2.2842348e+00   9.6398525e-02
 -9.6162789e-02   1.4430347e-01
  3.4536688e+00   8.3867595e-02
  2.2716589e-02   7.1304552e-02
  4.6614376e-01   8.9429252e-02
  4.9827433e-01   1.4738061e-01
 -2.8709257e+00   1.1568911e-01
  5.0023860e-01   6.7398265e-02
 -4.5689923e-01   9.0296827e-02
 -5.0845355e-01   1.4307773e-01
 -2.4484825e+00   1.6863239e-01
  2.8092042e-01   7.7188797e-02
  1.7538921e+00   1.4944081e-01
 -2.6509410e-01   1.2662683e-01
 -2.7323633e-01   2.7738646e-01
 -3.5700297e-01   2.5907530e-02
 -1.6745020e+00   6.2205125e-02
 -1.1043119e+00   1.0764552e-01
 -6.3792193e-01   4.0517811e-02
 -1.6510224e+00   6.7841202e-02
 -3.5637778e-01   2.9993668e-01
  5.0609332e-01   5.1587287e-02
 -6.0206723e-01   6.1378337e-02
 -3.1896744e+00   9.0279222e-02
  1.2152095e+00   1.0302736e-01
 -2.6945765e+00   1.1645060e-01
  6.8281895e-01   4.0124232e-01
  2.6314041e-01   1.0997967e-01
  8.8144368e-01   4.1707121e-02
  4.4811791e-01   4.4964522e-02
  1.5014770e+00   2.4774501e-02
  5.8424391e-02   5.0484788e-01
 -2.1782174e+00   8.8990226e-02
  1.4554981e+00   2.9791318e-02
 -9.2472963e-02   8.3432801e-02
 -1.9916851e-02   8.5254006e-02
 -1.0259871e-01   2.0298341e-01
  3.1244758e-01   1.2848449e-01
  1.9694690e+00   3.3607047e-02
  2.9237139e-01   3.3734944e-02
  5.0748020e-01   2.5668317e-01
  6.6464549e-01   1.4796345e-01
  1.7816279e+00   8.1851177e-02
 -6.2217325e-02   9.8441921e-02
  3.3841288e-01   1.6436756e-01
 -5.5521762e-01   9.8877802e-02
 -3.5878935e-01   4.4226792e-02
  6.9088840e-01   1.2363084e-01
  2.4049454e+00   1.2073924e-01
  2.0571288e-01   2.6307072e-02
  2.5856431e+00   1.4831790e-01
  2.4641755e+00   4.7589350e-02
  9.4960392e-02   5.8826305e-02
  3.5138857e-01   5.0052036e-02
  1.4097335e+00   1.7110498e-01
 -1.2786500e-01   6.3202190e-01
  1.6491553e-01   1.2354416e-01
 -1.0041597e+00   4.5380250e-02
 -3.0966117e+00   1.3965081e-01
 -2.9293984e-01   8.0610529e-02
 -1.3673414e+00   7.4994713e-02
 -3.5644791e+00   7.9180308e-02
  1.1354924e+00   8.1571676e-02
  1.3650775e+00   1.2017190e-01
 -9.8472553e-01   1.5202124e-01
  7.7170324e-01   9.7344525e-02
 -1.2068777e+00   1.5009065e-01
  6.7438942e-01   9.5571317e-02
 -1.8277298e+00   1.3361056e-01
  5.2067876e-01   1.3926637e-01
 -7.1289420e-01   1.7450866e-01
 -3.0692247e-01   5.3977560e-02
  1.3277065e+00   4.8562970e-02
  1.3816658e-01   1.8889959e-01
 -1.2082561e+00   8.9742593e-02
 -2.1257505e+00   1.0798831e-01
 -1.6098706e+00   6.6931367e-02
  2.3381329e-01   6.7767568e-02
  3.1622918e+00   1.0969165e-01
 -7.4716401e-01   2.7662769e-01
  1.0470802e+00   1.7557353e-01
  7.2771382e-01   6.4648026e-01
 -2.9885265e-01   3.5487628e-01
  2.7001078e+00   8.4407657e-02
  5.8850354e-01   2.6188427e-01
  1.5228770e+00   2.5569698e-01
 -2.0202684e+00   5.0532885e-02
  2.0235541e-01   2.6010856e-02
 -1.4188795e+00   4.2331100e-02
 -1.2231771e+00   2.1270157e-01
  2.9942710e-03   8.9591332e-02
  2.1618922e-01   1.4234787e-01
  2.4831135e+00   2.9402798e-02
 -4.3099034e-01   1.6187921e-01
 -1.1161484e+00   8.6325586e-02
 -2.8552529e-01   7.6915786e-02
 -1.9855732e-01   8.7232679e-02
 -1.6931317e+00   9.6753120e-02
  3.0562130e-01   1.0783470e-01
  9.8690099e-01   1.1756988e-02
  1.4365990e+00   2.4383076e-02
  9.9408454e-01   7.9110883e-02
 -1.3793998e+00   1.0615007e-01
 -1.2022829e+00   4.9728677e-02
  3.0009141e+00   3.5297737e-02
  5.2630067e+00   3.8032848e-02
  1.5043798e-01   3.9333317e-02
  2.3801670e+00   4.0570769e-02
 -2.4687970e-01   4.4664871e-02
  8.0133080e-01   4.6973795e-02
 -2.2206250e-01   4.6180606e-02
 -3.7934726e-01   1.2085107e-01
  6.5804505e-01   6.3606955e-02
  1.3879720e+00   3.4977142e-02
  4.5576435e-01   6.8066575e-02
  1.7835503e+00   5.0445661e-02
  4.5636114e-01   1.0733867e-01
 -3.7265238e-01   2.2668914e-01
  3.7933035e+00   1.0141768e-01
 -2.3482995e+00   4.6105016e-02
  1.2848763e+00   5.9599221e-02
  1.2001685e+00   6.3347235e-02
 -1.4825640e+00   3.4278539e-01
 -1.1160728e+00   7.9126589e-02
  5.1112020e-01   9.9605925e-02
  4.6340737e-02   8.3734892e-02
  9.9350184e-01   1.1900588e-01
  6.2230331e-01   9.7083606e-02
  7.2857392e-01   1.2491946e-01
 -1.3451774e+00   4.2378604e-02
 -1.1574146e+00   2.1015556e-01
 -3.1533727e-01   1.0744518e-01
  4.6155602e-01   1.7042243e-01
 -1.7196622e-01   5.4220922e-02
 -6.2504810e-01   6.4016953e-02
  7.6281446e-01   4.1807611e-02
 -5.0219399e-01   1.7758164e-01
 -1.5896377e-01   1.1388838e-01
  1.5790594e-01   2.0575280e-01
 -9.7003776e-01   4.9086697e-02
 -7.7130735e-01   1.6202120e-01
 -1.1387151e+00   1.5648639e-01
 -2.0010328e+00   4.0931568e-02
  1.4326958e-01   3.5202112e-02
  1.0044059e+00   9.8764777e-02
 -2.9443875e-01   2.4751289e-01
  1.5944966e+00   9.0907656e-02
 -3.4717903e-01   2.0406233e-01
  3.8720250e+00   1.3475029e-01
  1.9515580e+00   1.0867316e-01
 -1.5751703e-01   3.5632346e-02
  6.3334584e-01   1.0607255e-01
  9.4915146e-01   2.6393688e-01
 -3.7231630e-01   7.7416800e-02
 -1.7551413e+00   6.1081566e-02
  4.3880656e-01   4.4818740e-02
 -9.9005401e-01   3.3808926e-01
  8.3955169e-01   3.2269019e-01
  2.6409891e+00   8.5027590e-02
  1.0234469e+00   9.2564605e-02
  1.6622677e+00   5.2867543e-02
  6.4571381e-01   1.2806468e-01
  4.9851730e-01   9.9263988e-02
 -5.0196111e-01   1.3645448e-01
  2.5610044e+00   1.3374130e-01
  5.1611757e-01   9.6338145e-02
  6.0760307e-01   1.2580401e-01
 -2.1604137e+00   1.2597863e-01
  1.8986151e-01   1.5636906e-01
  6.7514563e-01   2.7061093e-01
  7.5713050e-01   1.0230885e-01
 -1.3565419e+00   1.4786074e-01
  1.1761302e+00   3.7311473e-01
  7.9133503e-02   2.0965244e-01
  4.0953791e-01   2.5725411e-02
 -9.2991441e-01   8.5903317e-02
 -1.9906818e+00   7.3794194e-02
  1.5614913e-01   1.2694113e-01
 -8.3236015e-01   1.0818813e-01
 -1.6712877e-01   1.0137046e-01
 -1.9315392e+00   8.9159161e-02
 -1.4956602e-01   6.8019032e-02
 -5.7656622e-01   1.4238688e-01
  9.6592081e-01   3.2854524e-02
 -3.9650938e-01   8.4072724e-02
 -5.7276711e-02   1.0112751e-01
  1.4010495e+00   3.1631794e-02
  1.7048699e-01   8.8375293e-02
  2.6613476e+00   7.9597354e-02
 -1.3839307e-01   1.1705006e-01
 -2.2945998e+00   6.0675327e-02
 -6.3786584e-01   1.7316914e-01
  1.1640087e-01   7.6914594e-02
 -1.7267414e+00   3.9618894e-01
  2.1547842e+00   6.7205288e-02
 -1.7736088e+00   1.0367634e-01
 -1.5078859e+00   9.5403709e-02
 -1.2429907e+00   1.3229118e-01
  2.1550188e+00   7.4556850e-02
 -6.7294246e-01   7.5950965e-02
  1.0530667e+00   8.4858216e-02
  4.4658354e-01   1.1226305e-01
  1.7210861e-01   1.6258305e-01
  3.8793117e-01   1.4202440e-01
  7.8954524e-01   2.0558968e-01
  2.4911010e+00   1.2313987e-01
  2.6018846e+00   7.1348615e-02
  8.3496642e-01   9.9936485e-02
 -2.8845721e-01   9.5030949e-02
  3.1838858e+00   6.7048781e-02
  1.5229877e+00   1.4340615e-01
 -2.2595840e+00   4.0910747e-02
  8.3214182e-01   9.0586312e-02
 -1.7060299e+00   1.3876297e-01
  3.7813067e-02   1.0325213e-01
 -1.3993664e+00   9.8329462e-02
  3.0685759e+00   1.0125939e-01
 -1.0142298e+00   5.3404097e-02
  3.3070779e-01   3.5842452e-02
 -2.9374889e-01   9.1789007e-02
  4.0370628e-01   3.0641176e-02
  1.0026059e+00   1.3210090e-01
 -1.9965979e+00   5.6805473e-02
 -1.0484052e+00   1.1267534e-01
  2.2805526e+00   1.1273153e-01
 -9.8218638e-01   1.0926416e-01
  5.6599122e-01   1.7141287e-01
  2.1194063e-02   1.1866762e-01
 -1.3111076e+00   8.3853431e-02
  2.9424067e+00   7.2286911e-02
  8.7427676e-02   6.8238117e-02
  1.0681223e+00   1.8656105e-01
  3.3991063e+00   1.1907174e-01
 -1.4517990e+00   1.1641988e-01
  1.2092671e+00   8.5085154e-02
 -2.5635352e+00   1.4910640e-01
 -8.8161558e-01   7.5814880e-02
 -1.1226276e+00   8.5942797e-02
  8.8487573e-02   6.4626426e-02
 -1.0425624e+00   4.8507210e-02
  7.3882926e-01   1.4241347e-01
 -5.9773088e-01   2.3196355e-01
  2.6047194e-01   7.9834349e-02
  8.5318863e-01   3.8226843e-02
 -4.5092240e-01   7.2444387e-02
  3.1965381e-01   2.9127847e-02