begin
atom -0.0 -2.83586951792 4.06664372682 Ag -0.406661896667 0.0 -7.52679391745e-25 0.00138968814477 0.00110023559385
atom -0.0 2.26665398461 -4.39711127873 Ag -0.403949906667 0.0 -3.39089054991e-25 0.00205166268774 -0.000448249025124
atom -0.0 0.56921551441 0.330465662181 Ag -0.189388196667 0.0 2.55604330228e-24 -0.00344135083251 -0.000651986568725
energy -16138.8586164
charge  -1.0
end
begin
atom -0.0 -2.64949926072 4.32314681772 Ag -0.404445853333 0.0 -5.95150265343e-24 0.000438929054912 -0.00121458786669
atom -0.0 2.72293070562 -4.2745319915 Ag -0.403771473333 0.0 -6.77868332694e-24 -0.000835092828907 0.000829314920352
atom -0.0 -0.0734314448965 -0.0486167348443 Ag -0.191782673333 0.0 1.45212190159e-23 0.000396163773995 0.000385272946338
energy -16138.8603673
charge  -1.0
end
