 vasp.5.4.4.18Apr17-6-g9f103f2a35 (build Apr 22 2022 11:10:59) gamma-only       
  
 executed on             LinuxIFC date 2022.06.05  23:00:53
 running on   20 total cores
 distrk:  each k-point on   20 cores,    1 groups
 distr:  one band on NCORES_PER_BAND=   1 cores,   20 groups


--------------------------------------------------------------------------------------------------------


 INCAR:
 POTCAR:    PAW_PBE C 08Apr2002                   
 POTCAR:    PAW_PBE N 08Apr2002                   
 POTCAR:    PAW_PBE Zn 06Sep2000                  
 POTCAR:    PAW_PBE H 15Jun2001                   

 ----------------------------------------------------------------------------- 
|                                                                             |
|           W    W    AA    RRRRR   N    N  II  N    N   GGGG   !!!           |
|           W    W   A  A   R    R  NN   N  II  NN   N  G    G  !!!           |
|           W    W  A    A  R    R  N N  N  II  N N  N  G       !!!           |
|           W WW W  AAAAAA  RRRRR   N  N N  II  N  N N  G  GGG   !            |
|           WW  WW  A    A  R   R   N   NN  II  N   NN  G    G                |
|           W    W  A    A  R    R  N    N  II  N    N   GGGG   !!!           |
|                                                                             |
|      For optimal performance we recommend to set                            |
|        NCORE= 4 - approx SQRT( number of cores)                             |
|      NCORE specifies how many cores store one orbital (NPAR=cpu/NCORE).     |
|      This setting can  greatly improve the performance of VASP for DFT.     |
|      The default,   NCORE=1            might be grossly inefficient         |
|      on modern multi-core architectures or massively parallel machines.     |
|      Do your own testing !!!!                                               |
|      Unfortunately you need to use the default for GW and RPA calculations. |
|      (for HF NCORE is supported but not extensively tested yet)             |
|                                                                             |
 ----------------------------------------------------------------------------- 

 POTCAR:    PAW_PBE C 08Apr2002                   
   VRHFIN =C: s2p2                                                              
   LEXCH  = PE                                                                  
   EATOM  =   147.1560 eV,   10.8157 Ry                                         
                                                                                
   TITEL  = PAW_PBE C 08Apr2002                                                 
   LULTRA =        F    use ultrasoft PP ?                                      
   IUNSCR =        1    unscreen: 0-lin 1-nonlin 2-no                           
   RPACOR =    1.200    partial core radius                                     
   POMASS =   12.011; ZVAL   =    4.000    mass and valenz                      
   RCORE  =    1.500    outmost cutoff radius                                   
   RWIGS  =    1.630; RWIGS  =    0.863    wigner-seitz radius (au A)           
   ENMAX  =  400.000; ENMIN  =  300.000 eV                                      
   ICORE  =        2    local potential                                         
   LCOR   =        T    correct aug charges                                     
   LPAW   =        T    paw PP                                                  
   EAUG   =  644.873                                                            
   DEXC   =    0.000                                                            
   RMAX   =    1.529    core radius for proj-oper                               
   RAUG   =    1.300    factor for augmentation sphere                          
   RDEP   =    1.501    radius for radial grids                                 
   RDEPT  =    1.300    core radius for aug-charge                              
                                                                                
   Atomic configuration                                                         
    4 entries                                                                   
     n  l   j            E        occ.                                          
     1  0  0.50      -273.3789   2.0000                                         
     2  0  0.50       -13.7508   2.0000                                         
     2  1  0.50        -5.2854   2.0000                                         
     3  2  1.50        -5.4423   0.0000                                         
   Description                                                                  
     l       E           TYP  RCUT    TYP  RCUT                                 
     0    -13.7508458     23  1.200                                             
     0     -8.2022199     23  1.200                                             
     1     -5.2854383     23  1.500                                             
     1     34.0145650     23  1.500                                             
     2     -5.4423304      7  1.500                                             
  local pseudopotential read in
  partial core-charges read in
  partial kinetic energy density read in
  atomic valenz-charges read in
  non local Contribution for L=           0  read in
    real space projection operators read in
  non local Contribution for L=           0  read in
    real space projection operators read in
  non local Contribution for L=           1  read in
    real space projection operators read in
  non local Contribution for L=           1  read in
    real space projection operators read in
    PAW grid and wavefunctions read in
 
   number of l-projection  operators is LMAX  =           4
   number of lm-projection operators is LMMAX =           8
 
 POTCAR:    PAW_PBE N 08Apr2002                   
   VRHFIN =N: s2p3                                                              
   LEXCH  = PE                                                                  
   EATOM  =   264.5486 eV,   19.4438 Ry                                         
                                                                                
   TITEL  = PAW_PBE N 08Apr2002                                                 
   LULTRA =        F    use ultrasoft PP ?                                      
   IUNSCR =        1    unscreen: 0-lin 1-nonlin 2-no                           
   RPACOR =    1.200    partial core radius                                     
   POMASS =   14.001; ZVAL   =    5.000    mass and valenz                      
   RCORE  =    1.500    outmost cutoff radius                                   
   RWIGS  =    1.400; RWIGS  =    0.741    wigner-seitz radius (au A)           
   ENMAX  =  400.000; ENMIN  =  300.000 eV                                      
   ICORE  =        2    local potential                                         
   LCOR   =        T    correct aug charges                                     
   LPAW   =        T    paw PP                                                  
   EAUG   =  627.112                                                            
   DEXC   =    0.000                                                            
   RMAX   =    1.529    core radius for proj-oper                               
   RAUG   =    1.300    factor for augmentation sphere                          
   RDEP   =    1.514    radius for radial grids                                 
   RDEPT  =    1.338    core radius for aug-charge                              
                                                                                
   Atomic configuration                                                         
    4 entries                                                                   
     n  l   j            E        occ.                                          
     1  0  0.50      -384.7179   2.0000                                         
     2  0  0.50       -18.5828   2.0000                                         
     2  1  0.50        -7.0898   3.0000                                         
     3  2  1.50        -6.8029   0.0000                                         
   Description                                                                  
     l       E           TYP  RCUT    TYP  RCUT                                 
     0    -18.5828119     23  1.200                                             
     0    -13.5018863     23  1.200                                             
     1     -7.0897853     23  1.500                                             
     1      9.5240782     23  1.500                                             
     2     -6.8029130      7  1.500                                             
  local pseudopotential read in
  partial core-charges read in
  partial kinetic energy density read in
  atomic valenz-charges read in
  non local Contribution for L=           0  read in
    real space projection operators read in
  non local Contribution for L=           0  read in
    real space projection operators read in
  non local Contribution for L=           1  read in
    real space projection operators read in
  non local Contribution for L=           1  read in
    real space projection operators read in
    PAW grid and wavefunctions read in
 
   number of l-projection  operators is LMAX  =           4
   number of lm-projection operators is LMMAX =           8
 
 POTCAR:    PAW_PBE Zn 06Sep2000                  
   VRHFIN =Zn: d10 p2                                                           
   LEXCH  = PE                                                                  
   EATOM  =  1748.8345 eV,  128.5357 Ry                                         
                                                                                
   TITEL  = PAW_PBE Zn 06Sep2000                                                
   LULTRA =        F    use ultrasoft PP ?                                      
   IUNSCR =        1    unscreen: 0-lin 1-nonlin 2-no                           
   RPACOR =    2.000    partial core radius                                     
   POMASS =   65.390; ZVAL   =   12.000    mass and valenz                      
   RCORE  =    2.300    outmost cutoff radius                                   
   RWIGS  =    2.400; RWIGS  =    1.270    wigner-seitz radius (au A)           
   ENMAX  =  276.723; ENMIN  =  207.542 eV                                      
   RCLOC  =    1.828    cutoff for local pot                                    
   LCOR   =        T    correct aug charges                                     
   LPAW   =        T    paw PP                                                  
   EAUG   =  575.892                                                            
   DEXC   =    0.000                                                            
   RMAX   =    2.347    core radius for proj-oper                               
   RAUG   =    1.300    factor for augmentation sphere                          
   RDEP   =    2.324    radius for radial grids                                 
   RDEPT  =    1.788    core radius for aug-charge                              
                                                                                
   Atomic configuration                                                         
    9 entries                                                                   
     n  l   j            E        occ.                                          
     1  0  0.50     -9524.6913   2.0000                                         
     2  0  0.50     -1158.1882   2.0000                                         
     2  1  1.50     -1003.8506   6.0000                                         
     3  0  0.50      -129.2194   2.0000                                         
     3  1  1.50       -83.3890   6.0000                                         
     3  2  2.50       -10.1410  10.0000                                         
     4  0  0.50        -5.9785   2.0000                                         
     4  1  0.50        -4.0817   0.0000                                         
     4  3  2.50        -1.3606   0.0000                                         
   Description                                                                  
     l       E           TYP  RCUT    TYP  RCUT                                 
     2    -10.1410010     23  2.300                                             
     2    -11.5015836     23  2.300                                             
     0     -5.9785163     23  2.300                                             
     0      1.1858015     23  2.300                                             
     1     -2.7211652     23  2.300                                             
     1     13.2444212     23  2.300                                             
  local pseudopotential read in
  partial core-charges read in
  partial kinetic energy density read in
  atomic valenz-charges read in
  non local Contribution for L=           2  read in
    real space projection operators read in
  non local Contribution for L=           2  read in
    real space projection operators read in
  non local Contribution for L=           0  read in
    real space projection operators read in
  non local Contribution for L=           0  read in
    real space projection operators read in
  non local Contribution for L=           1  read in
    real space projection operators read in
  non local Contribution for L=           1  read in
    real space projection operators read in
    PAW grid and wavefunctions read in
 
   number of l-projection  operators is LMAX  =           6
   number of lm-projection operators is LMMAX =          18
 
 POTCAR:    PAW_PBE H 15Jun2001                   
   VRHFIN =H: ultrasoft test                                                    
   LEXCH  = PE                                                                  
   EATOM  =    12.4884 eV,    0.9179 Ry                                         
                                                                                
   TITEL  = PAW_PBE H 15Jun2001                                                 
   LULTRA =        F    use ultrasoft PP ?                                      
   IUNSCR =        0    unscreen: 0-lin 1-nonlin 2-no                           
   RPACOR =    0.000    partial core radius                                     
   POMASS =    1.000; ZVAL   =    1.000    mass and valenz                      
   RCORE  =    1.100    outmost cutoff radius                                   
   RWIGS  =    0.700; RWIGS  =    0.370    wigner-seitz radius (au A)           
   ENMAX  =  250.000; ENMIN  =  200.000 eV                                      
   RCLOC  =    0.701    cutoff for local pot                                    
   LCOR   =        T    correct aug charges                                     
   LPAW   =        T    paw PP                                                  
   EAUG   =  400.000                                                            
   RMAX   =    1.123    core radius for proj-oper                               
   RAUG   =    1.200    factor for augmentation sphere                          
   RDEP   =    1.112    radius for radial grids                                 
   RDEPT  =    0.926    core radius for aug-charge                              
                                                                                
   Atomic configuration                                                         
    2 entries                                                                   
     n  l   j            E        occ.                                          
     1  0  0.50        -6.4927   1.0000                                         
     2  1  0.50        -3.4015   0.0000                                         
   Description                                                                  
     l       E           TYP  RCUT    TYP  RCUT                                 
     0     -6.4927494     23  1.100                                             
     0      6.8029130     23  1.100                                             
     1     -4.0817478     23  1.100                                             
  local pseudopotential read in
  atomic valenz-charges read in
  non local Contribution for L=           0  read in
    real space projection operators read in
  non local Contribution for L=           0  read in
    real space projection operators read in
  non local Contribution for L=           1  read in
    real space projection operators read in
    PAW grid and wavefunctions read in
 
   number of l-projection  operators is LMAX  =           3
   number of lm-projection operators is LMMAX =           5
 
 Optimization of the real space projectors (new method)

 maximal supplied QI-value         = 25.13
 optimisation between [QCUT,QGAM] = [ 10.05, 20.36] = [ 28.30,116.06] Ry 
 Optimized for a Real-space Cutoff    1.30 Angstroem

   l    n(q)    QCUT    max X(q) W(low)/X(q) W(high)/X(q)  e(spline) 
   0      8    10.053   115.676    0.49E-03    0.72E-03    0.18E-06
   0      8    10.053    87.132    0.49E-03    0.71E-03    0.18E-06
   1      7    10.053     4.429    0.32E-03    0.31E-03    0.18E-06
   1      7    10.053     2.733    0.23E-03    0.19E-03    0.20E-06
 Optimization of the real space projectors (new method)

 maximal supplied QI-value         = 25.13
 optimisation between [QCUT,QGAM] = [ 10.05, 20.36] = [ 28.30,116.06] Ry 
 Optimized for a Real-space Cutoff    1.65 Angstroem

   l    n(q)    QCUT    max X(q) W(low)/X(q) W(high)/X(q)  e(spline) 
   0     10    10.053    79.467    0.76E-04    0.72E-04    0.56E-06
   0     10    10.053    66.151    0.76E-04    0.72E-04    0.55E-06
   1     10    10.053     8.350    0.25E-03    0.92E-03    0.41E-05
   1     10    10.053     5.531    0.27E-03    0.10E-02    0.45E-05
 Optimization of the real space projectors (new method)

 maximal supplied QI-value         = 16.25
 optimisation between [QCUT,QGAM] = [ 10.24, 20.48] = [ 29.35,117.42] Ry 
 Optimized for a Real-space Cutoff    1.38 Angstroem

   l    n(q)    QCUT    max X(q) W(low)/X(q) W(high)/X(q)  e(spline) 
   2      7    10.239    46.356    0.21E-03    0.48E-03    0.10E-06
   2      7    10.239    41.843    0.21E-03    0.50E-03    0.10E-06
   0      8    10.239    48.958    0.37E-03    0.79E-04    0.11E-06
   0      8    10.239    32.776    0.35E-03    0.73E-04    0.10E-06
   1      8    10.239    17.787    0.49E-03    0.70E-03    0.14E-06
   1      8    10.239    14.435    0.42E-03    0.61E-03    0.13E-06
 Optimization of the real space projectors (new method)

 maximal supplied QI-value         = 34.20
 optimisation between [QCUT,QGAM] = [  9.92, 20.18] = [ 27.55,114.04] Ry 
 Optimized for a Real-space Cutoff    1.26 Angstroem

   l    n(q)    QCUT    max X(q) W(low)/X(q) W(high)/X(q)  e(spline) 
   0      8     9.919    19.460    0.50E-03    0.23E-03    0.29E-06
   0      8     9.919    12.209    0.48E-03    0.23E-03    0.28E-06
   1      7     9.919     4.655    0.17E-03    0.75E-03    0.30E-06
  PAW_PBE C 08Apr2002                   :
 energy of atom  1       EATOM= -147.1560
 kinetic energy error for atom=    0.0288 (will be added to EATOM!!)
  PAW_PBE N 08Apr2002                   :
 energy of atom  2       EATOM= -264.5486
 kinetic energy error for atom=    0.0736 (will be added to EATOM!!)
  PAW_PBE Zn 06Sep2000                  :
 energy of atom  3       EATOM=-1748.8345
 kinetic energy error for atom=    0.0107 (will be added to EATOM!!)
  PAW_PBE H 15Jun2001                   :
 energy of atom  4       EATOM=  -12.4884
 kinetic energy error for atom=    0.0098 (will be added to EATOM!!)
 
 
 POSCAR: ZIF-8                                   
  positions in direct lattice
  No initial velocities read in
 exchange correlation table for  LEXCH =        8
   RHO(1)=    0.500       N(1)  =     2000
   RHO(2)=  100.500       N(2)  =     4000
 


--------------------------------------------------------------------------------------------------------


 ion  position               nearest neighbor table
   1  0.374  0.896  0.682- 157 1.08  23 1.37  97 1.38
   2  0.626  0.104  0.682- 158 1.08  22 1.37  98 1.38
   3  0.626  0.896  0.318- 159 1.08  21 1.37  99 1.38
   4  0.374  0.104  0.318- 160 1.08  24 1.37 100 1.38
   5  0.682  0.374  0.896- 161 1.08  19 1.37 101 1.38
   6  0.682  0.626  0.104- 162 1.08  18 1.37 102 1.38
   7  0.318  0.626  0.896- 163 1.08  17 1.37 103 1.38
   8  0.318  0.374  0.104- 164 1.08  20 1.37 104 1.38
   9  0.896  0.682  0.374- 165 1.08  15 1.37 105 1.38
  10  0.104  0.682  0.626- 166 1.08  14 1.37 106 1.38
  11  0.896  0.318  0.626- 167 1.08  13 1.37 107 1.38
  12  0.104  0.318  0.374- 168 1.08  16 1.37 108 1.38
  13  0.896  0.374  0.682- 169 1.08  11 1.37 109 1.38
  14  0.104  0.626  0.682- 170 1.08  10 1.37 110 1.38
  15  0.896  0.626  0.318- 171 1.08   9 1.37 111 1.38
  16  0.104  0.374  0.318- 172 1.08  12 1.37 112 1.38
  17  0.374  0.682  0.896- 173 1.08   7 1.37 113 1.38
  18  0.626  0.682  0.104- 174 1.08   6 1.37 114 1.38
  19  0.626  0.318  0.896- 175 1.08   5 1.37 115 1.38
  20  0.374  0.318  0.104- 176 1.08   8 1.37 116 1.38
  21  0.682  0.896  0.374- 177 1.08   3 1.37 117 1.38
  22  0.682  0.104  0.626- 178 1.08   2 1.37 118 1.38
  23  0.318  0.896  0.626- 179 1.08   1 1.37 119 1.38
  24  0.318  0.104  0.374- 180 1.08   4 1.37 120 1.38
  25  0.874  0.396  0.182- 181 1.08  47 1.37 121 1.38
  26  0.126  0.604  0.182- 182 1.08  46 1.37 122 1.38
  27  0.126  0.396  0.818- 183 1.08  45 1.37 123 1.38
  28  0.874  0.604  0.818- 184 1.08  48 1.37 124 1.38
  29  0.182  0.874  0.396- 185 1.08  43 1.37 125 1.38
  30  0.182  0.126  0.604- 186 1.08  42 1.37 126 1.38
  31  0.818  0.126  0.396- 187 1.08  41 1.37 127 1.38
  32  0.818  0.874  0.604- 188 1.08  44 1.37 128 1.38
  33  0.396  0.182  0.874- 189 1.08  39 1.37 129 1.38
  34  0.604  0.182  0.126- 190 1.08  38 1.37 130 1.38
  35  0.396  0.818  0.126- 191 1.08  37 1.37 131 1.38
  36  0.604  0.818  0.874- 192 1.08  40 1.37 132 1.38
  37  0.396  0.874  0.182- 193 1.08  35 1.37 133 1.38
  38  0.604  0.126  0.182- 194 1.08  34 1.37 134 1.38
  39  0.396  0.126  0.818- 195 1.08  33 1.37 135 1.38
  40  0.604  0.874  0.818- 196 1.08  36 1.37 136 1.38
  41  0.874  0.182  0.396- 197 1.08  31 1.37 137 1.38
  42  0.126  0.182  0.604- 198 1.08  30 1.37 138 1.38
  43  0.126  0.818  0.396- 199 1.08  29 1.37 139 1.38
  44  0.874  0.818  0.604- 200 1.08  32 1.37 140 1.38
  45  0.182  0.396  0.874- 201 1.08  27 1.37 141 1.38
  46  0.182  0.604  0.126- 202 1.08  26 1.37 142 1.38
  47  0.818  0.396  0.126- 203 1.08  25 1.37 143 1.38
  48  0.818  0.604  0.874- 204 1.08  28 1.37 144 1.38
  49  0.376  0.009  0.624-  97 1.35 119 1.35  73 1.49
  50  0.624  0.991  0.624-  98 1.35 118 1.35  74 1.49
  51  0.624  0.009  0.376- 117 1.35  99 1.35  75 1.49
  52  0.376  0.991  0.376- 100 1.35 120 1.35  76 1.49
  53  0.624  0.376  0.009- 101 1.35 115 1.35  77 1.49
  54  0.624  0.624  0.991- 102 1.35 114 1.35  78 1.49
  55  0.376  0.624  0.009- 113 1.35 103 1.35  79 1.49
  56  0.376  0.376  0.991- 104 1.35 116 1.35  80 1.49
  57  0.009  0.624  0.376- 105 1.35 111 1.35  81 1.49
  58  0.991  0.624  0.624- 106 1.35 110 1.35  82 1.49
  59  0.009  0.376  0.624- 109 1.35 107 1.35  83 1.49
  60  0.991  0.376  0.376- 108 1.35 112 1.35  84 1.49
  61  0.876  0.509  0.124- 143 1.35 121 1.35  85 1.49
  62  0.124  0.491  0.124- 122 1.35 142 1.35  86 1.49
  63  0.124  0.509  0.876- 123 1.35 141 1.35  87 1.49
  64  0.876  0.491  0.876- 124 1.35 144 1.35  88 1.49
  65  0.124  0.876  0.509- 139 1.35 125 1.35  89 1.49
  66  0.124  0.124  0.491- 126 1.35 138 1.35  90 1.49
  67  0.876  0.124  0.509- 127 1.35 137 1.35  91 1.49
  68  0.876  0.876  0.491- 128 1.35 140 1.35  92 1.49
  69  0.509  0.124  0.876- 135 1.35 129 1.35  93 1.49
  70  0.491  0.124  0.124- 130 1.35 134 1.35  94 1.49
  71  0.509  0.876  0.124- 131 1.35 133 1.35  95 1.49
  72  0.491  0.876  0.876- 132 1.35 136 1.35  96 1.49
  73  0.400  0.089  0.600- 205 1.10 227 1.10 253 1.10  49 1.49
  74  0.600  0.911  0.600- 206 1.10 226 1.10 254 1.10  50 1.49
  75  0.600  0.089  0.400- 225 1.10 207 1.10 255 1.10  51 1.49
  76  0.400  0.911  0.400- 208 1.10 228 1.10 256 1.10  52 1.49
  77  0.600  0.400  0.089- 209 1.10 223 1.10 257 1.10  53 1.49
  78  0.600  0.600  0.911- 210 1.10 222 1.10 258 1.10  54 1.49
  79  0.400  0.600  0.089- 221 1.10 211 1.10 259 1.10  55 1.49
  80  0.400  0.400  0.911- 212 1.10 224 1.10 260 1.10  56 1.49
  81  0.089  0.600  0.400- 213 1.10 219 1.10 261 1.10  57 1.49
  82  0.911  0.600  0.600- 214 1.10 218 1.10 262 1.10  58 1.49
  83  0.089  0.400  0.600- 217 1.10 215 1.10 263 1.10  59 1.49
  84  0.911  0.400  0.400- 216 1.10 220 1.10 264 1.10  60 1.49
  85  0.900  0.589  0.100- 251 1.10 229 1.10 265 1.10  61 1.49
  86  0.100  0.411  0.100- 230 1.10 250 1.10 266 1.10  62 1.49
  87  0.100  0.589  0.900- 231 1.10 249 1.10 267 1.10  63 1.49
  88  0.900  0.411  0.900- 232 1.10 252 1.10 268 1.10  64 1.49
  89  0.100  0.900  0.589- 247 1.10 233 1.10 269 1.10  65 1.49
  90  0.100  0.100  0.411- 234 1.10 246 1.10 270 1.10  66 1.49
  91  0.900  0.100  0.589- 235 1.10 245 1.10 271 1.10  67 1.49
  92  0.900  0.900  0.411- 236 1.10 248 1.10 272 1.10  68 1.49
  93  0.589  0.100  0.900- 243 1.10 237 1.10 273 1.10  69 1.49
  94  0.411  0.100  0.100- 238 1.10 242 1.10 274 1.10  70 1.49
  95  0.589  0.900  0.100- 239 1.10 241 1.10 275 1.10  71 1.49
  96  0.411  0.900  0.900- 240 1.10 244 1.10 276 1.10  72 1.49
  97  0.411  0.968  0.681-  49 1.35   1 1.38 145 2.02
  98  0.589  0.032  0.681-  50 1.35   2 1.38 145 2.02
  99  0.589  0.968  0.319-  51 1.35   3 1.38 146 2.02
 100  0.411  0.032  0.319-  52 1.35   4 1.38 146 2.02
 101  0.681  0.411  0.968-  53 1.35   5 1.38 147 2.02
 102  0.681  0.589  0.032-  54 1.35   6 1.38 147 2.02
 103  0.319  0.589  0.968-  55 1.35   7 1.38 148 2.02
 104  0.319  0.411  0.032-  56 1.35   8 1.38 148 2.02
 105  0.968  0.681  0.411-  57 1.35   9 1.38 149 2.02
 106  0.032  0.681  0.589-  58 1.35  10 1.38 149 2.02
 107  0.968  0.319  0.589-  59 1.35  11 1.38 150 2.02
 108  0.032  0.319  0.411-  60 1.35  12 1.38 150 2.02
 109  0.968  0.411  0.681-  59 1.35  13 1.38 151 2.02
 110  0.032  0.589  0.681-  58 1.35  14 1.38 151 2.02
 111  0.968  0.589  0.319-  57 1.35  15 1.38 152 2.02
 112  0.032  0.411  0.319-  60 1.35  16 1.38 152 2.02
 113  0.411  0.681  0.968-  55 1.35  17 1.38 153 2.02
 114  0.589  0.681  0.032-  54 1.35  18 1.38 153 2.02
 115  0.589  0.319  0.968-  53 1.35  19 1.38 154 2.02
 116  0.411  0.319  0.032-  56 1.35  20 1.38 154 2.02
 117  0.681  0.968  0.411-  51 1.35  21 1.38 155 2.02
 118  0.681  0.032  0.589-  50 1.35  22 1.38 155 2.02
 119  0.319  0.968  0.589-  49 1.35  23 1.38 156 2.02
 120  0.319  0.032  0.411-  52 1.35  24 1.38 156 2.02
 121  0.911  0.468  0.181-  61 1.35  25 1.38 152 2.02
 122  0.089  0.532  0.181-  62 1.35  26 1.38 152 2.02
 123  0.089  0.468  0.819-  63 1.35  27 1.38 151 2.02
 124  0.911  0.532  0.819-  64 1.35  28 1.38 151 2.02
 125  0.181  0.911  0.468-  65 1.35  29 1.38 156 2.02
 126  0.181  0.089  0.532-  66 1.35  30 1.38 156 2.02
 127  0.819  0.089  0.468-  67 1.35  31 1.38 155 2.02
 128  0.819  0.911  0.532-  68 1.35  32 1.38 155 2.02
 129  0.468  0.181  0.911-  69 1.35  33 1.38 154 2.02
 130  0.532  0.181  0.089-  70 1.35  34 1.38 154 2.02
 131  0.468  0.819  0.089-  71 1.35  35 1.38 153 2.02
 132  0.532  0.819  0.911-  72 1.35  36 1.38 153 2.02
 133  0.468  0.911  0.181-  71 1.35  37 1.38 146 2.02
 134  0.532  0.089  0.181-  70 1.35  38 1.38 146 2.02
 135  0.468  0.089  0.819-  69 1.35  39 1.38 145 2.02
 136  0.532  0.911  0.819-  72 1.35  40 1.38 145 2.02
 137  0.911  0.181  0.468-  67 1.35  41 1.38 150 2.02
 138  0.089  0.181  0.532-  66 1.35  42 1.38 150 2.02
 139  0.089  0.819  0.468-  65 1.35  43 1.38 149 2.02
 140  0.911  0.819  0.532-  68 1.35  44 1.38 149 2.02
 141  0.181  0.468  0.911-  63 1.35  45 1.38 148 2.02
 142  0.181  0.532  0.089-  62 1.35  46 1.38 148 2.02
 143  0.819  0.468  0.089-  61 1.35  47 1.38 147 2.02
 144  0.819  0.532  0.911-  64 1.35  48 1.38 147 2.02
 145  0.500  0.000  0.750-  97 2.02 135 2.02  98 2.02 136 2.02
 146  0.500  0.000  0.250- 134 2.02 100 2.02 133 2.02  99 2.02
 147  0.750  0.500  0.000- 101 2.02 143 2.02 102 2.02 144 2.02
 148  0.250  0.500  0.000- 142 2.02 104 2.02 141 2.02 103 2.02
 149  0.000  0.750  0.500- 105 2.02 139 2.02 106 2.02 140 2.02
 150  0.000  0.250  0.500- 138 2.02 108 2.02 137 2.02 107 2.02
 151  0.000  0.500  0.750- 109 2.02 123 2.02 110 2.02 124 2.02
 152  0.000  0.500  0.250- 122 2.02 112 2.02 121 2.02 111 2.02
 153  0.500  0.750  0.000- 113 2.02 131 2.02 114 2.02 132 2.02
 154  0.500  0.250  0.000- 130 2.02 116 2.02 129 2.02 115 2.02
 155  0.750  0.000  0.500- 117 2.02 127 2.02 118 2.02 128 2.02
 156  0.250  0.000  0.500- 126 2.02 120 2.02 125 2.02 119 2.02
 157  0.391  0.850  0.722-   1 1.08
 158  0.609  0.150  0.722-   2 1.08
 159  0.609  0.850  0.278-   3 1.08
 160  0.391  0.150  0.278-   4 1.08
 161  0.722  0.391  0.850-   5 1.08
 162  0.722  0.609  0.150-   6 1.08
 163  0.278  0.609  0.850-   7 1.08
 164  0.278  0.391  0.150-   8 1.08
 165  0.850  0.722  0.391-   9 1.08
 166  0.150  0.722  0.609-  10 1.08
 167  0.850  0.278  0.609-  11 1.08
 168  0.150  0.278  0.391-  12 1.08
 169  0.850  0.391  0.722-  13 1.08
 170  0.150  0.609  0.722-  14 1.08
 171  0.850  0.609  0.278-  15 1.08
 172  0.150  0.391  0.278-  16 1.08
 173  0.391  0.722  0.850-  17 1.08
 174  0.609  0.722  0.150-  18 1.08
 175  0.609  0.278  0.850-  19 1.08
 176  0.391  0.278  0.150-  20 1.08
 177  0.722  0.850  0.391-  21 1.08
 178  0.722  0.150  0.609-  22 1.08
 179  0.278  0.850  0.609-  23 1.08
 180  0.278  0.150  0.391-  24 1.08
 181  0.891  0.350  0.222-  25 1.08
 182  0.109  0.650  0.222-  26 1.08
 183  0.109  0.350  0.778-  27 1.08
 184  0.891  0.650  0.778-  28 1.08
 185  0.222  0.891  0.350-  29 1.08
 186  0.222  0.109  0.650-  30 1.08
 187  0.778  0.109  0.350-  31 1.08
 188  0.778  0.891  0.650-  32 1.08
 189  0.350  0.222  0.891-  33 1.08
 190  0.650  0.222  0.109-  34 1.08
 191  0.350  0.778  0.109-  35 1.08
 192  0.650  0.778  0.891-  36 1.08
 193  0.350  0.891  0.222-  37 1.08
 194  0.650  0.109  0.222-  38 1.08
 195  0.350  0.109  0.778-  39 1.08
 196  0.650  0.891  0.778-  40 1.08
 197  0.891  0.222  0.350-  41 1.08
 198  0.109  0.222  0.650-  42 1.08
 199  0.109  0.778  0.350-  43 1.08
 200  0.891  0.778  0.650-  44 1.08
 201  0.222  0.350  0.891-  45 1.08
 202  0.222  0.650  0.109-  46 1.08
 203  0.778  0.350  0.109-  47 1.08
 204  0.778  0.650  0.891-  48 1.08
 205  0.424  0.121  0.649-  73 1.10
 206  0.576  0.879  0.649-  74 1.10
 207  0.576  0.121  0.351-  75 1.10
 208  0.424  0.879  0.351-  76 1.10
 209  0.649  0.424  0.121-  77 1.10
 210  0.649  0.576  0.879-  78 1.10
 211  0.351  0.576  0.121-  79 1.10
 212  0.351  0.424  0.879-  80 1.10
 213  0.121  0.649  0.424-  81 1.10
 214  0.879  0.649  0.576-  82 1.10
 215  0.121  0.351  0.576-  83 1.10
 216  0.879  0.351  0.424-  84 1.10
 217  0.121  0.424  0.649-  83 1.10
 218  0.879  0.576  0.649-  82 1.10
 219  0.121  0.576  0.351-  81 1.10
 220  0.879  0.424  0.351-  84 1.10
 221  0.424  0.649  0.121-  79 1.10
 222  0.576  0.649  0.879-  78 1.10
 223  0.576  0.351  0.121-  77 1.10
 224  0.424  0.351  0.879-  80 1.10
 225  0.649  0.121  0.424-  75 1.10
 226  0.649  0.879  0.576-  74 1.10
 227  0.351  0.121  0.576-  73 1.10
 228  0.351  0.879  0.424-  76 1.10
 229  0.924  0.621  0.149-  85 1.10
 230  0.076  0.379  0.149-  86 1.10
 231  0.076  0.621  0.851-  87 1.10
 232  0.924  0.379  0.851-  88 1.10
 233  0.149  0.924  0.621-  89 1.10
 234  0.149  0.076  0.379-  90 1.10
 235  0.851  0.076  0.621-  91 1.10
 236  0.851  0.924  0.379-  92 1.10
 237  0.621  0.149  0.924-  93 1.10
 238  0.379  0.149  0.076-  94 1.10
 239  0.621  0.851  0.076-  95 1.10
 240  0.379  0.851  0.924-  96 1.10
 241  0.621  0.924  0.149-  95 1.10
 242  0.379  0.076  0.149-  94 1.10
 243  0.621  0.076  0.851-  93 1.10
 244  0.379  0.924  0.851-  96 1.10
 245  0.924  0.149  0.621-  91 1.10
 246  0.076  0.149  0.379-  90 1.10
 247  0.076  0.851  0.621-  89 1.10
 248  0.924  0.851  0.379-  92 1.10
 249  0.149  0.621  0.924-  87 1.10
 250  0.149  0.379  0.076-  86 1.10
 251  0.851  0.621  0.076-  85 1.10
 252  0.851  0.379  0.924-  88 1.10
 253  0.445  0.086  0.555-  73 1.10
 254  0.555  0.914  0.555-  74 1.10
 255  0.555  0.086  0.445-  75 1.10
 256  0.445  0.914  0.445-  76 1.10
 257  0.555  0.445  0.086-  77 1.10
 258  0.555  0.555  0.914-  78 1.10
 259  0.445  0.555  0.086-  79 1.10
 260  0.445  0.445  0.914-  80 1.10
 261  0.086  0.555  0.445-  81 1.10
 262  0.914  0.555  0.555-  82 1.10
 263  0.086  0.445  0.555-  83 1.10
 264  0.914  0.445  0.445-  84 1.10
 265  0.945  0.586  0.055-  85 1.10
 266  0.055  0.414  0.055-  86 1.10
 267  0.055  0.586  0.945-  87 1.10
 268  0.945  0.414  0.945-  88 1.10
 269  0.055  0.945  0.586-  89 1.10
 270  0.055  0.055  0.414-  90 1.10
 271  0.945  0.055  0.586-  91 1.10
 272  0.945  0.945  0.414-  92 1.10
 273  0.586  0.055  0.945-  93 1.10
 274  0.414  0.055  0.055-  94 1.10
 275  0.586  0.945  0.055-  95 1.10
 276  0.414  0.945  0.945-  96 1.10
 
  LATTYP: Found a simple cubic cell.
 ALAT       =    17.1996002197
  
  Lattice vectors:
  
 A1 = (  17.1996002197,   0.0000000000,   0.0000000000)
 A2 = (   0.0000000000,  17.1996002197,   0.0000000000)
 A3 = (   0.0000000000,   0.0000000000,  17.1996002197)


Analysis of symmetry for initial positions (statically):
=====================================================================
 Subroutine PRICEL returns following result:
 
  LATTYP: Found a body centered cubic cell.
 ALAT       =    17.1996002197
  
  Lattice vectors:
  
 A1 = (   8.5998001098,   8.5998001099,   8.5998001099)
 A2 = (   8.5998001098,  -8.5998001098,  -8.5998001098)
 A3 = (  -8.5998001098,   8.5998001098,  -8.5998001099)
 
   2 primitive cells build up your supercell.
 

 Routine SETGRP: Setting up the symmetry group for a 
 simple cubic supercell.


 Subroutine GETGRP returns: Found 24 space group operations
 (whereof 24 operations were pure point group operations)
 out of a pool of 48 trial point group operations.


The static configuration has the point symmetry T_d .


Analysis of symmetry for dynamics (positions and initial velocities):
=====================================================================
 Subroutine PRICEL returns following result:
 
  LATTYP: Found a body centered cubic cell.
 ALAT       =    17.1996002197
  
  Lattice vectors:
  
 A1 = (   8.5998001098,   8.5998001099,   8.5998001099)
 A2 = (   8.5998001098,  -8.5998001098,  -8.5998001098)
 A3 = (  -8.5998001098,   8.5998001098,  -8.5998001099)
 
   2 primitive cells build up your supercell.
 

 Routine SETGRP: Setting up the symmetry group for a 
 simple cubic supercell.


 Subroutine GETGRP returns: Found 24 space group operations
 (whereof 24 operations were pure point group operations)
 out of a pool of 48 trial point group operations.


The dynamic configuration has the point symmetry T_d .


 Subroutine INISYM returns: Found 24 space group operations
 (whereof 24 operations are pure point group operations),
 and found     2 'primitive' translations

 
 
 KPOINTS: Regular k-point mesh                    

Automatic generation of k-mesh.
Space group operators:
 irot       det(A)        alpha          n_x          n_y          n_z        tau_x        tau_y        tau_z
    1     1.000000     0.000000     1.000000     0.000000     0.000000     0.000000     0.000000     0.000000
    2     1.000000   120.000000    -0.577350    -0.577350    -0.577350     0.000000     0.000000     0.000000
    3     1.000000   120.000000     0.577350     0.577350     0.577350     0.000000     0.000000     0.000000
    4    -1.000000    90.000000     0.000000     0.000000    -1.000000     0.000000     0.000000     0.000000
    5    -1.000000   180.000000     0.000000     0.707107     0.707107     0.000000     0.000000     0.000000
    6    -1.000000    90.000000     0.000000     1.000000     0.000000     0.000000     0.000000     0.000000
    7     1.000000   180.000000     0.000000     0.000000     1.000000     0.000000     0.000000     0.000000
    8     1.000000   120.000000    -0.577350     0.577350     0.577350     0.000000     0.000000     0.000000
    9     1.000000   120.000000    -0.577350     0.577350    -0.577350     0.000000     0.000000     0.000000
   10    -1.000000    90.000000     0.000000     0.000000     1.000000     0.000000     0.000000     0.000000
   11    -1.000000    90.000000    -1.000000     0.000000     0.000000     0.000000     0.000000     0.000000
   12    -1.000000   180.000000     0.707107     0.000000     0.707107     0.000000     0.000000     0.000000
   13     1.000000   120.000000     0.577350    -0.577350     0.577350     0.000000     0.000000     0.000000
   14     1.000000   120.000000    -0.577350    -0.577350     0.577350     0.000000     0.000000     0.000000
   15     1.000000   180.000000     1.000000     0.000000     0.000000     0.000000     0.000000     0.000000
   16    -1.000000    90.000000     0.000000    -1.000000     0.000000     0.000000     0.000000     0.000000
   17    -1.000000   180.000000     0.707107     0.707107     0.000000     0.000000     0.000000     0.000000
   18    -1.000000    90.000000     1.000000     0.000000     0.000000     0.000000     0.000000     0.000000
   19     1.000000   120.000000     0.577350    -0.577350    -0.577350     0.000000     0.000000     0.000000
   20     1.000000   180.000000     0.000000     1.000000     0.000000     0.000000     0.000000     0.000000
   21     1.000000   120.000000     0.577350     0.577350    -0.577350     0.000000     0.000000     0.000000
   22    -1.000000   180.000000     0.000000    -0.707107     0.707107     0.000000     0.000000     0.000000
   23    -1.000000   180.000000     0.707107    -0.707107     0.000000     0.000000     0.000000     0.000000
   24    -1.000000   180.000000     0.707107     0.000000    -0.707107     0.000000     0.000000     0.000000
 
 Subroutine IBZKPT returns following result:
 ===========================================
 
 Found      1 irreducible k-points:
 
 Following reciprocal coordinates:
            Coordinates               Weight
  0.000000  0.000000  0.000000      1.000000
 
 Following cartesian coordinates:
            Coordinates               Weight
  0.000000  0.000000  0.000000      1.000000
 


--------------------------------------------------------------------------------------------------------




 Dimension of arrays:
   k-points           NKPTS =      1   k-points in BZ     NKDIM =      1   number of bands    NBANDS=    600
   number of dos      NEDOS =    301   number of ions     NIONS =    276
   non local maximal  LDIM  =      6   non local SUM 2l+1 LMDIM =     18
   total plane-waves  NPLWV = 592704
   max r-space proj   IRMAX =   2235   max aug-charges    IRDMAX=   3671
   dimension x,y,z NGX =    84 NGY =   84 NGZ =   84
   dimension x,y,z NGXF=   168 NGYF=  168 NGZF=  168
   support grid    NGXF=   168 NGYF=  168 NGZF=  168
   ions per type =              96  48  12 120
   NGX,Y,Z   is equivalent  to a cutoff of   8.12,  8.12,  8.12 a.u.
   NGXF,Y,Z  is equivalent  to a cutoff of  16.24, 16.24, 16.24 a.u.

 SYSTEM =  HKUST-1                                 
 POSCAR =  ZIF-8                                   

 Startparameter for this run:
   NWRITE =      2    write-flag & timer
   PREC   = normal    normal or accurate (medium, high low for compatibility)
   ISTART =      0    job   : 0-new  1-cont  2-samecut
   ICHARG =      2    charge: 1-file 2-atom 10-const
   ISPIN  =      1    spin polarized calculation?
   LNONCOLLINEAR =      F non collinear calculations
   LSORBIT =      F    spin-orbit coupling
   INIWAV =      1    electr: 0-lowe 1-rand  2-diag
   LASPH  =      F    aspherical Exc in radial PAW
   METAGGA=      F    non-selfconsistent MetaGGA calc.

 Electronic Relaxation 1
   ENCUT  =  400.0 eV  29.40 Ry    5.42 a.u.  28.05 28.05 28.05*2*pi/ulx,y,z
   ENINI  =  400.0     initial cutoff
   ENAUG  =  644.9 eV  augmentation charge cutoff
   NELM   =     60;   NELMIN=  2; NELMDL= -5     # of ELM steps 
   EDIFF  = 0.1E-05   stopping-criterion for ELM
   LREAL  =      T    real-space projection
   NLSPLINE    = F    spline interpolate recip. space projectors
   LCOMPAT=      F    compatible to vasp.4.4
   GGA_COMPAT  = T    GGA compatible to vasp.4.4-vasp.4.6
   LMAXPAW     = -100 max onsite density
   LMAXMIX     =    2 max onsite mixed and CHGCAR
   VOSKOWN=      0    Vosko Wilk Nusair interpolation
   ROPT   =   -0.00050  -0.00050  -0.00050  -0.00050
 Ionic relaxation
   EDIFFG = 0.1E-04   stopping-criterion for IOM
   NSW    =      1    number of steps for IOM
   NBLOCK =      1;   KBLOCK =      1    inner block; outer block 
   IBRION =     -1    ionic relax: 0-MD 1-quasi-New 2-CG
   NFREE  =      0    steps in history (QN), initial steepest desc. (CG)
   ISIF   =      2    stress and relaxation
   IWAVPR =     10    prediction:  0-non 1-charg 2-wave 3-comb
   ISYM   =      2    0-nonsym 1-usesym 2-fastsym
   LCORR  =      T    Harris-Foulkes like correction to forces

   POTIM  = 0.5000    time-step for ionic-motion
   TEIN   =    0.0    initial temperature
   TEBEG  =    0.0;   TEEND  =   0.0 temperature during run
   SMASS  =  -3.00    Nose mass-parameter (am)
   estimated Nose-frequenzy (Omega)   =  0.10E-29 period in steps =****** mass=  -0.676E-26a.u.
   SCALEE = 1.0000    scale energy and forces
   NPACO  =    256;   APACO  = 16.0  distance and # of slots for P.C.
   PSTRESS=    0.0 pullay stress

  Mass of Ions in am
   POMASS =  12.01 14.00 65.39  1.00
  Ionic Valenz
   ZVAL   =   4.00  5.00 12.00  1.00
  Atomic Wigner-Seitz radii
   RWIGS  =  -1.00 -1.00 -1.00 -1.00
  virtual crystal weights 
   VCA    =   1.00  1.00  1.00  1.00
   NELECT =     888.0000    total number of electrons
   NUPDOWN=      -1.0000    fix difference up-down

 DOS related values:
   EMIN   =  10.00;   EMAX   =-10.00  energy-range for DOS
   EFERMI =   0.00
   ISMEAR =     0;   SIGMA  =   0.05  broadening in eV -4-tet -1-fermi 0-gaus

 Electronic relaxation 2 (details)
   IALGO  =     38    algorithm
   LDIAG  =      T    sub-space diagonalisation (order eigenvalues)
   LSUBROT=      F    optimize rotation matrix (better conditioning)
   TURBO    =      0    0=normal 1=particle mesh
   IRESTART =      0    0=no restart 2=restart with 2 vectors
   NREBOOT  =      0    no. of reboots
   NMIN     =      0    reboot dimension
   EREF     =   0.00    reference energy to select bands
   IMIX   =      4    mixing-type and parameters
     AMIX     =   0.40;   BMIX     =  1.00
     AMIX_MAG =   1.60;   BMIX_MAG =  1.00
     AMIN     =   0.10
     WC   =   100.;   INIMIX=   1;  MIXPRE=   1;  MAXMIX= -45

 Intra band minimization:
   WEIMIN = 0.0000     energy-eigenvalue tresh-hold
   EBREAK =  0.42E-09  absolut break condition
   DEPER  =   0.30     relativ break condition  

   TIME   =   0.40     timestep for ELM

  volume/ion in A,a.u.               =      18.44       124.41
  Fermi-wavevector in a.u.,A,eV,Ry     =   0.914873  1.728859 11.387975  0.836993
  Thomas-Fermi vector in A             =   2.039550
 
 Write flags
   LWAVE        =      F    write WAVECAR
   LDOWNSAMPLE  =      F    k-point downsampling of WAVECAR
   LCHARG       =      F    write CHGCAR
   LVTOT        =      F    write LOCPOT, total local potential
   LVHAR        =      F    write LOCPOT, Hartree potential only
   LELF         =      F    write electronic localiz. function (ELF)
   LORBIT       =      0    0 simple, 1 ext, 2 COOP (PROOUT), +10 PAW based schemes


 Dipole corrections
   LMONO  =      F    monopole corrections only (constant potential shift)
   LDIPOL =      F    correct potential (dipole corrections)
   IDIPOL =      0    1-x, 2-y, 3-z, 4-all directions 
   EPSILON=  1.0000000 bulk dielectric constant

 Exchange correlation treatment:
   GGA     =    --    GGA type
   LEXCH   =     8    internal setting for exchange type
   VOSKOWN=      0    Vosko Wilk Nusair interpolation
   LHFCALC =     F    Hartree Fock is set to
   LHFONE  =     F    Hartree Fock one center treatment
   AEXX    =    0.0000 exact exchange contribution

 Linear response parameters
   LEPSILON=     F    determine dielectric tensor
   LRPA    =     F    only Hartree local field effects (RPA)
   LNABLA  =     F    use nabla operator in PAW spheres
   LVEL    =     F    velocity operator in full k-point grid
   LINTERFAST=   F  fast interpolation
   KINTER  =     0    interpolate to denser k-point grid
   CSHIFT  =0.1000    complex shift for real part using Kramers Kronig
   OMEGAMAX=  -1.0    maximum frequency
   DEG_THRESHOLD= 0.2000000E-02 threshold for treating states as degnerate
   RTIME   =   -0.100 relaxation time in fs
  (WPLASMAI=    0.000 imaginary part of plasma frequency in eV, 0.658/RTIME)
   DFIELD  = 0.0000000 0.0000000 0.0000000 field for delta impulse in time
 
 Orbital magnetization related:
   ORBITALMAG=     F  switch on orbital magnetization
   LCHIMAG   =     F  perturbation theory with respect to B field
   DQ        =  0.001000  dq finite difference perturbation B field
   LLRAUG    =     F  two centre corrections for induced B field



--------------------------------------------------------------------------------------------------------


 Static calculation
 charge density and potential will be updated during run
 non-spin polarized calculation
 Variant of blocked Davidson
 Davidson routine will perform the subspace rotation
 perform sub-space diagonalisation
    after iterative eigenvector-optimisation
 modified Broyden-mixing scheme, WC =      100.0
 initial mixing is a Kerker type mixing with AMIX =  0.4000 and BMIX =      1.0000
 Hartree-type preconditioning will be used
 using additional bands          156
 real space projection scheme for non local part
 use partial core corrections
 calculate Harris-corrections to forces 
   (improved forces if not selfconsistent)
 use gradient corrections 
 use of overlap-Matrix (Vanderbilt PP)
 Gauss-broadening in eV      SIGMA  =   0.05


--------------------------------------------------------------------------------------------------------


  energy-cutoff  :      400.00
  volume of cell :     5088.09
      direct lattice vectors                 reciprocal lattice vectors
    17.199600220  0.000000000  0.000000000     0.058140886  0.000000000  0.000000000
     0.000000000 17.199600220  0.000000000     0.000000000  0.058140886  0.000000000
     0.000000000  0.000000000 17.199600220     0.000000000  0.000000000  0.058140886

  length of vectors
    17.199600220 17.199600220 17.199600220     0.058140886  0.058140886  0.058140886


 
 k-points in units of 2pi/SCALE and weight: Regular k-point mesh                    
   0.00000000  0.00000000  0.00000000       1.000
 
 k-points in reciprocal lattice and weights: Regular k-point mesh                    
   0.00000000  0.00000000  0.00000000       1.000
 
 position of ions in fractional coordinates (direct lattice) 
   0.37430000  0.89595000  0.68217006
   0.62570002  0.10405000  0.68217006
   0.62570002  0.89595000  0.31783000
   0.37430000  0.10405000  0.31783000
   0.68217006  0.37430000  0.89595000
   0.68217006  0.62570002  0.10405000
   0.31783000  0.62570002  0.89595000
   0.31783000  0.37430000  0.10405000
   0.89595000  0.68217006  0.37430000
   0.10405000  0.68217006  0.62570002
   0.89595000  0.31783000  0.62570002
   0.10405000  0.31783000  0.37430000
   0.89595000  0.37430000  0.68217006
   0.10405000  0.62570002  0.68217006
   0.89595000  0.62570002  0.31783000
   0.10405000  0.37430000  0.31783000
   0.37430000  0.68217006  0.89595000
   0.62570002  0.68217006  0.10405000
   0.62570002  0.31783000  0.89595000
   0.37430000  0.31783000  0.10405000
   0.68217006  0.89595000  0.37430000
   0.68217006  0.10405000  0.62570002
   0.31783000  0.89595000  0.62570002
   0.31783000  0.10405000  0.37430000
   0.87429998  0.39595000  0.18217000
   0.12570000  0.60405000  0.18217000
   0.12570000  0.39595000  0.81782994
   0.87429998  0.60405000  0.81782994
   0.18217000  0.87429998  0.39595000
   0.18217000  0.12570000  0.60405000
   0.81782994  0.12570000  0.39595000
   0.81782994  0.87429998  0.60405000
   0.39595000  0.18217000  0.87429998
   0.60405000  0.18217000  0.12570000
   0.39595000  0.81782994  0.12570000
   0.60405000  0.81782994  0.87429998
   0.39595000  0.87429998  0.18217000
   0.60405000  0.12570000  0.18217000
   0.39595000  0.12570000  0.81782994
   0.60405000  0.87429998  0.81782994
   0.87429998  0.18217000  0.39595000
   0.12570000  0.18217000  0.60405000
   0.12570000  0.81782994  0.39595000
   0.87429998  0.81782994  0.60405000
   0.18217000  0.39595000  0.87429998
   0.18217000  0.60405000  0.12570000
   0.81782994  0.39595000  0.12570000
   0.81782994  0.60405000  0.87429998
   0.37571001  0.00896000  0.62428999
   0.62428999  0.99104002  0.62428999
   0.62428999  0.00896000  0.37571001
   0.37571001  0.99104002  0.37571001
   0.62428999  0.37571001  0.00896000
   0.62428999  0.62428999  0.99104002
   0.37571001  0.62428999  0.00896000
   0.37571001  0.37571001  0.99104002
   0.00896000  0.62428999  0.37571001
   0.99104002  0.62428999  0.62428999
   0.00896000  0.37571001  0.62428999
   0.99104002  0.37571001  0.37571001
   0.87571001  0.50896003  0.12428999
   0.12428999  0.49103997  0.12428999
   0.12428999  0.50896003  0.87571001
   0.87571001  0.49103997  0.87571001
   0.12428999  0.87571001  0.50896003
   0.12428999  0.12428999  0.49103997
   0.87571001  0.12428999  0.50896003
   0.87571001  0.87571001  0.49103997
   0.50896003  0.12428999  0.87571001
   0.49103997  0.12428999  0.12428999
   0.50896003  0.87571001  0.12428999
   0.49103997  0.87571001  0.87571001
   0.40016001  0.08853000  0.59983999
   0.59983999  0.91147002  0.59983999
   0.59983999  0.08853000  0.40016001
   0.40016001  0.91147002  0.40016001
   0.59983999  0.40016001  0.08853000
   0.59983999  0.59983999  0.91147002
   0.40016001  0.59983999  0.08853000
   0.40016001  0.40016001  0.91147002
   0.08853000  0.59983999  0.40016001
   0.91147002  0.59983999  0.59983999
   0.08853000  0.40016001  0.59983999
   0.91147002  0.40016001  0.40016001
   0.90016001  0.58852998  0.09983998
   0.09983993  0.41146999  0.09983998
   0.09983993  0.58852998  0.90016001
   0.90016001  0.41146999  0.90016001
   0.09983998  0.90016001  0.58852998
   0.09983998  0.09983993  0.41146999
   0.90016001  0.09983993  0.58852998
   0.90016001  0.90016001  0.41146999
   0.58852998  0.09983998  0.90016001
   0.41146999  0.09983998  0.09983993
   0.58852998  0.90016001  0.09983993
   0.41146999  0.90016001  0.90016001
   0.41061998  0.96756999  0.68141996
   0.58938005  0.03243000  0.68141996
   0.58938005  0.96756999  0.31858001
   0.41061998  0.03243000  0.31858001
   0.68141996  0.41061998  0.96756999
   0.68141996  0.58938005  0.03243000
   0.31858001  0.58938005  0.96756999
   0.31858001  0.41061998  0.03243000
   0.96756999  0.68141996  0.41061998
   0.03243000  0.68141996  0.58938005
   0.96756999  0.31858001  0.58938005
   0.03243000  0.31858001  0.41061998
   0.96756999  0.41061998  0.68141996
   0.03243000  0.58938005  0.68141996
   0.96756999  0.58938005  0.31858001
   0.03243000  0.41061998  0.31858001
   0.41061998  0.68141996  0.96756999
   0.58938005  0.68141996  0.03243000
   0.58938005  0.31858001  0.96756999
   0.41061998  0.31858001  0.03243000
   0.68141996  0.96756999  0.41061998
   0.68141996  0.03243000  0.58938005
   0.31858001  0.96756999  0.58938005
   0.31858001  0.03243000  0.41061998
   0.91061995  0.46756999  0.18142000
   0.08938002  0.53243001  0.18142000
   0.08938002  0.46756999  0.81858004
   0.91061995  0.53243001  0.81858004
   0.18142000  0.91061995  0.46756999
   0.18142000  0.08938002  0.53243001
   0.81858004  0.08938002  0.46756999
   0.81858004  0.91061995  0.53243001
   0.46756999  0.18142000  0.91061995
   0.53243001  0.18142000  0.08938002
   0.46756999  0.81858004  0.08938002
   0.53243001  0.81858004  0.91061995
   0.46756999  0.91061995  0.18142000
   0.53243001  0.08938002  0.18142000
   0.46756999  0.08938002  0.81858004
   0.53243001  0.91061995  0.81858004
   0.91061995  0.18142000  0.46756999
   0.08938002  0.18142000  0.53243001
   0.08938002  0.81858004  0.46756999
   0.91061995  0.81858004  0.53243001
   0.18142000  0.46756999  0.91061995
   0.18142000  0.53243001  0.08938002
   0.81858004  0.46756999  0.08938002
   0.81858004  0.53243001  0.91061995
   0.50000000  0.00000000  0.75000000
   0.50000000  0.00000000  0.25000000
   0.75000000  0.50000000  0.00000000
   0.25000000  0.50000000  0.00000000
   0.00000000  0.75000000  0.50000000
   0.00000000  0.25000000  0.50000000
   0.00000000  0.50000000  0.75000000
   0.00000000  0.50000000  0.25000000
   0.50000000  0.75000000  0.00000000
   0.50000000  0.25000000  0.00000000
   0.75000000  0.00000000  0.50000000
   0.25000000  0.00000000  0.50000000
   0.39146000  0.85048002  0.72235001
   0.60853997  0.14951999  0.72235001
   0.60853997  0.85048002  0.27764999
   0.39146000  0.14951999  0.27764999
   0.72235001  0.39146000  0.85048002
   0.72235001  0.60853997  0.14951999
   0.27764999  0.60853997  0.85048002
   0.27764999  0.39146000  0.14951999
   0.85048002  0.72235001  0.39146000
   0.14951999  0.72235001  0.60853997
   0.85048002  0.27764999  0.60853997
   0.14951999  0.27764999  0.39146000
   0.85048002  0.39146000  0.72235001
   0.14951999  0.60853997  0.72235001
   0.85048002  0.60853997  0.27764999
   0.14951999  0.39146000  0.27764999
   0.39146000  0.72235001  0.85048002
   0.60853997  0.72235001  0.14951999
   0.60853997  0.27764999  0.85048002
   0.39146000  0.27764999  0.14951999
   0.72235001  0.85048002  0.39146000
   0.72235001  0.14951999  0.60853997
   0.27764999  0.85048002  0.60853997
   0.27764999  0.14951999  0.39146000
   0.89146003  0.35048002  0.22235000
   0.10854006  0.64951998  0.22235000
   0.10854006  0.35048002  0.77764999
   0.89146003  0.64951998  0.77764999
   0.22235000  0.89146003  0.35048002
   0.22235000  0.10854006  0.64951998
   0.77764999  0.10854006  0.35048002
   0.77764999  0.89146003  0.64951998
   0.35048002  0.22235000  0.89146003
   0.64951998  0.22235000  0.10854006
   0.35048002  0.77764999  0.10854006
   0.64951998  0.77764999  0.89146003
   0.35048002  0.89146003  0.22235000
   0.64951998  0.10854006  0.22235000
   0.35048002  0.10854006  0.77764999
   0.64951998  0.89146003  0.77764999
   0.89146003  0.22235000  0.35048002
   0.10854006  0.22235000  0.64951998
   0.10854006  0.77764999  0.35048002
   0.89146003  0.77764999  0.64951998
   0.22235000  0.35048002  0.89146003
   0.22235000  0.64951998  0.10854006
   0.77764999  0.35048002  0.10854006
   0.77764999  0.64951998  0.89146003
   0.42423999  0.12135000  0.64893994
   0.57575998  0.87865000  0.64893994
   0.57575998  0.12135000  0.35106000
   0.42423999  0.87865000  0.35106000
   0.64893994  0.42423999  0.12135000
   0.64893994  0.57575998  0.87865000
   0.35106000  0.57575998  0.12135000
   0.35106000  0.42423999  0.87865000
   0.12135000  0.64893994  0.42423999
   0.87865000  0.64893994  0.57575998
   0.12135000  0.35106000  0.57575998
   0.87865000  0.35106000  0.42423999
   0.12135000  0.42423999  0.64893994
   0.87865000  0.57575998  0.64893994
   0.12135000  0.57575998  0.35106000
   0.87865000  0.42423999  0.35106000
   0.42423999  0.64893994  0.12135000
   0.57575998  0.64893994  0.87865000
   0.57575998  0.35106000  0.12135000
   0.42423999  0.35106000  0.87865000
   0.64893994  0.12135000  0.42423999
   0.64893994  0.87865000  0.57575998
   0.35106000  0.12135000  0.57575998
   0.35106000  0.87865000  0.42423999
   0.92424002  0.62135000  0.14894000
   0.07576001  0.37865000  0.14894000
   0.07576001  0.62135000  0.85106006
   0.92424002  0.37865000  0.85106006
   0.14894000  0.92424002  0.62135000
   0.14894000  0.07576001  0.37865000
   0.85106006  0.07576001  0.62135000
   0.85106006  0.92424002  0.37865000
   0.62135000  0.14894000  0.92424002
   0.37865000  0.14894000  0.07576001
   0.62135000  0.85106006  0.07576001
   0.37865000  0.85106006  0.92424002
   0.62135000  0.92424002  0.14894000
   0.37865000  0.07576001  0.14894000
   0.62135000  0.07576001  0.85106006
   0.37865000  0.92424002  0.85106006
   0.92424002  0.14894000  0.62135000
   0.07576001  0.14894000  0.37865000
   0.07576001  0.85106006  0.62135000
   0.92424002  0.85106006  0.37865000
   0.14894000  0.62135000  0.92424002
   0.14894000  0.37865000  0.07576001
   0.85106006  0.62135000  0.07576001
   0.85106006  0.37865000  0.92424002
   0.44538998  0.08598999  0.55460999
   0.55460999  0.91401001  0.55460999
   0.55460999  0.08598999  0.44538998
   0.44538998  0.91401001  0.44538998
   0.55460999  0.44538998  0.08598999
   0.55460999  0.55460999  0.91401001
   0.44538998  0.55460999  0.08598999
   0.44538998  0.44538998  0.91401001
   0.08598999  0.55460999  0.44538998
   0.91401001  0.55460999  0.55460999
   0.08598999  0.44538998  0.55460999
   0.91401001  0.44538998  0.44538998
   0.94539001  0.58598999  0.05461002
   0.05461002  0.41400998  0.05461002
   0.05461002  0.58598999  0.94539001
   0.94539001  0.41400998  0.94539001
   0.05461002  0.94539001  0.58598999
   0.05461002  0.05461002  0.41400998
   0.94539001  0.05461002  0.58598999
   0.94539001  0.94539001  0.41400998
   0.58598999  0.05461002  0.94539001
   0.41400998  0.05461002  0.05461002
   0.58598999  0.94539001  0.05461002
   0.41400998  0.94539001  0.94539001
 
 position of ions in cartesian coordinates  (Angst):
   6.43781041 15.40998173 11.73305226
  10.76179027  1.78961849 11.73305226
  10.76179027 15.40998173  5.46654892
   6.43781041  1.78961849  5.46654892
  11.73305226  6.43781041 15.40998173
  11.73305226 10.76179027  1.78961849
   5.46654892 10.76179027 15.40998173
   5.46654892  6.43781041  1.78961849
  15.40998173 11.73305226  6.43781041
   1.78961849 11.73305226 10.76179027
  15.40998173  5.46654892 10.76179027
   1.78961849  5.46654892  6.43781041
  15.40998173  6.43781041 11.73305226
   1.78961849 10.76179027 11.73305226
  15.40998173 10.76179027  5.46654892
   1.78961849  6.43781041  5.46654892
   6.43781041 11.73305226 15.40998173
  10.76179027 11.73305226  1.78961849
  10.76179027  5.46654892 15.40998173
   6.43781041  5.46654892  1.78961849
  11.73305226 15.40998173  6.43781041
  11.73305226  1.78961849 10.76179027
   5.46654892 15.40998173 10.76179027
   5.46654892  1.78961849  6.43781041
  15.03761006  6.81018162  3.13325119
   2.16198970 10.38941860  3.13325119
   2.16198970  6.81018162 14.06634807
  15.03761006 10.38941860 14.06634807
   3.13325119 15.03761006  6.81018162
   3.13325119  2.16198970 10.38941860
  14.06634807  2.16198970  6.81018162
  14.06634807 15.03761006 10.38941860
   6.81018162  3.13325119 15.03761006
  10.38941860  3.13325119  2.16198970
   6.81018162 14.06634807  2.16198970
  10.38941860 14.06634807 15.03761006
   6.81018162 15.03761006  3.13325119
  10.38941860  2.16198970  3.13325119
   6.81018162  2.16198970 14.06634807
  10.38941860 15.03761006 14.06634807
  15.03761006  3.13325119  6.81018162
   2.16198970  3.13325119 10.38941860
   2.16198970 14.06634807  6.81018162
  15.03761006 14.06634807 10.38941860
   3.13325119  6.81018162 15.03761006
   3.13325119 10.38941860  2.16198970
  14.06634807  6.81018162  2.16198970
  14.06634807 10.38941860 15.03761006
   6.46206188  0.15410842 10.73753834
  10.73753834 17.04549218 10.73753834
  10.73753834  0.15410842  6.46206188
   6.46206188 17.04549218  6.46206188
  10.73753834  6.46206188  0.15410842
  10.73753834 10.73753834 17.04549218
   6.46206188 10.73753834  0.15410842
   6.46206188  6.46206188 17.04549218
   0.15410842 10.73753834  6.46206188
  17.04549218 10.73753834 10.73753834
   0.15410842  6.46206188 10.73753834
  17.04549218  6.46206188  6.46206188
  15.06186199  8.75390911  2.13773823
   2.13773823  8.44569111  2.13773823
   2.13773823  8.75390911 15.06186199
  15.06186199  8.44569111 15.06186199
   2.13773823 15.06186199  8.75390911
   2.13773823  2.13773823  8.44569111
  15.06186199  2.13773823  8.75390911
  15.06186199 15.06186199  8.44569111
   8.75390911  2.13773823 15.06186199
   8.44569111  2.13773823  2.13773823
   8.75390911 15.06186199  2.13773823
   8.44569111 15.06186199 15.06186199
   6.88259220  1.52268052 10.31700802
  10.31700802 15.67691994 10.31700802
  10.31700802  1.52268052  6.88259220
   6.88259220 15.67691994  6.88259220
  10.31700802  6.88259220  1.52268052
  10.31700802 10.31700802 15.67691994
   6.88259220 10.31700802  1.52268052
   6.88259220  6.88259220 15.67691994
   1.52268052 10.31700802  6.88259220
  15.67691994 10.31700802 10.31700802
   1.52268052  6.88259220 10.31700802
  15.67691994  6.88259220  6.88259220
  15.48239231 10.12248039  1.71720779
   1.71720683  7.07711935  1.71720779
   1.71720683 10.12248039 15.48239231
  15.48239231  7.07711935 15.48239231
   1.71720779 15.48239231 10.12248039
   1.71720779  1.71720683  7.07711935
  15.48239231  1.71720683 10.12248039
  15.48239231 15.48239231  7.07711935
  10.12248039  1.71720779 15.48239231
   7.07711935  1.71720779  1.71720683
  10.12248039 15.48239231  1.71720683
   7.07711935 15.48239231 15.48239231
   7.06249952 16.64181710 11.72015095
  10.13710117  0.55778307 11.72015095
  10.13710117 16.64181710  5.47944879
   7.06249952  0.55778307  5.47944879
  11.72015095  7.06249952 16.64181710
  11.72015095 10.13710117  0.55778307
   5.47944879 10.13710117 16.64181710
   5.47944879  7.06249952  0.55778307
  16.64181710 11.72015095  7.06249952
   0.55778307 11.72015095 10.13710117
  16.64181710  5.47944879 10.13710117
   0.55778307  5.47944879  7.06249952
  16.64181710  7.06249952 11.72015095
   0.55778307 10.13710117 11.72015095
  16.64181710 10.13710117  5.47944879
   0.55778307  7.06249952  5.47944879
   7.06249952 11.72015095 16.64181710
  10.13710117 11.72015095  0.55778307
  10.13710117  5.47944879 16.64181710
   7.06249952  5.47944879  0.55778307
  11.72015095 16.64181710  7.06249952
  11.72015095  0.55778307 10.13710117
   5.47944879 16.64181710 10.13710117
   5.47944879  0.55778307  7.06249952
  15.66229916  8.04201699  3.12035156
   1.53730070  9.15758323  3.12035156
   1.53730070  8.04201699 14.07924938
  15.66229916  9.15758323 14.07924938
   3.12035156 15.66229916  8.04201699
   3.12035156  1.53730070  9.15758323
  14.07924938  1.53730070  8.04201699
  14.07924938 15.66229916  9.15758323
   8.04201699  3.12035156 15.66229916
   9.15758323  3.12035156  1.53730070
   8.04201699 14.07924938  1.53730070
   9.15758323 14.07924938 15.66229916
   8.04201699 15.66229916  3.12035156
   9.15758323  1.53730070  3.12035156
   8.04201699  1.53730070 14.07924938
   9.15758323 15.66229916 14.07924938
  15.66229916  3.12035156  8.04201699
   1.53730070  3.12035156  9.15758323
   1.53730070 14.07924938  8.04201699
  15.66229916 14.07924938  9.15758323
   3.12035156  8.04201699 15.66229916
   3.12035156  9.15758323  1.53730070
  14.07924938  8.04201699  1.53730070
  14.07924938  9.15758323 15.66229916
   8.59980011  0.00000000 12.89970016
   8.59980011  0.00000000  4.29990005
  12.89970016  8.59980011  0.00000000
   4.29990005  8.59980011  0.00000000
   0.00000000 12.89970016  8.59980011
   0.00000000  4.29990005  8.59980011
   0.00000000  8.59980011 12.89970016
   0.00000000  8.59980011  4.29990005
   8.59980011 12.89970016  0.00000000
   8.59980011  4.29990005  0.00000000
  12.89970016  0.00000000  8.59980011
   4.29990005  0.00000000  8.59980011
   6.73295545 14.62791634 12.42413139
  10.46664429  2.57168412 12.42413139
  10.46664429 14.62791634  4.77546883
   6.73295545  2.57168412  4.77546883
  12.42413139  6.73295545 14.62791634
  12.42413139 10.46664429  2.57168412
   4.77546883 10.46664429 14.62791634
   4.77546883  6.73295545  2.57168412
  14.62791634 12.42413139  6.73295545
   2.57168412 12.42413139 10.46664429
  14.62791634  4.77546883 10.46664429
   2.57168412  4.77546883  6.73295545
  14.62791634  6.73295545 12.42413139
   2.57168412 10.46664429 12.42413139
  14.62791634 10.46664429  4.77546883
   2.57168412  6.73295545  4.77546883
   6.73295545 12.42413139 14.62791634
  10.46664429 12.42413139  2.57168412
  10.46664429  4.77546883 14.62791634
   6.73295545  4.77546883  2.57168412
  12.42413139 14.62791634  6.73295545
  12.42413139  2.57168412 10.46664429
   4.77546883 14.62791634 10.46664429
   4.77546883  2.57168412  6.73295545
  15.33275604  6.02811623  3.82433104
   1.86684561 11.17148399  3.82433104
   1.86684561  6.02811623 13.37526894
  15.33275604 11.17148399 13.37526894
   3.82433104 15.33275604  6.02811623
   3.82433104  1.86684561 11.17148399
  13.37526894  1.86684561  6.02811623
  13.37526894 15.33275604 11.17148399
   6.02811623  3.82433104 15.33275604
  11.17148399  3.82433104  1.86684561
   6.02811623 13.37526894  1.86684561
  11.17148399 13.37526894 15.33275604
   6.02811623 15.33275604  3.82433104
  11.17148399  1.86684561  3.82433104
   6.02811623  1.86684561 13.37526894
  11.17148399 15.33275604 13.37526894
  15.33275604  3.82433104  6.02811623
   1.86684561  3.82433104 11.17148399
   1.86684561 13.37526894  6.02811623
  15.33275604 13.37526894 11.17148399
   3.82433104  6.02811623 15.33275604
   3.82433104 11.17148399  1.86684561
  13.37526894  6.02811623  1.86684561
  13.37526894 11.17148399 15.33275604
   7.29675817  2.08717156 11.16150760
   9.90284156 15.11242866 11.16150760
   9.90284156  2.08717156  6.03809165
   7.29675817 15.11242866  6.03809165
  11.16150760  7.29675817  2.08717156
  11.16150760  9.90284156 15.11242866
   6.03809165  9.90284156  2.08717156
   6.03809165  7.29675817 15.11242866
   2.08717156 11.16150760  7.29675817
  15.11242866 11.16150760  9.90284156
   2.08717156  6.03809165  9.90284156
  15.11242866  6.03809165  7.29675817
   2.08717156  7.29675817 11.16150760
  15.11242866  9.90284156 11.16150760
   2.08717156  9.90284156  6.03809165
  15.11242866  7.29675817  6.03809165
   7.29675817 11.16150760  2.08717156
   9.90284156 11.16150760 15.11242866
   9.90284156  6.03809165  2.08717156
   7.29675817  6.03809165 15.11242866
  11.16150760  2.08717156  7.29675817
  11.16150760 15.11242866  9.90284156
   6.03809165  2.08717156  9.90284156
   6.03809165 15.11242866  7.29675817
  15.89655877 10.68697167  2.56170846
   1.30304182  6.51262855  2.56170846
   1.30304182 10.68697167 14.63789273
  15.89655877  6.51262855 14.63789273
   2.56170846 15.89655877 10.68697167
   2.56170846  1.30304182  6.51262855
  14.63789273  1.30304182 10.68697167
  14.63789273 15.89655877  6.51262855
  10.68697167  2.56170846 15.89655877
   6.51262855  2.56170846  1.30304182
  10.68697167 14.63789273  1.30304182
   6.51262855 14.63789273 15.89655877
  10.68697167 15.89655877  2.56170846
   6.51262855  1.30304182  2.56170846
  10.68697167  1.30304182 14.63789273
   6.51262855 15.89655877 14.63789273
  15.89655877  2.56170846 10.68697167
   1.30304182  2.56170846  6.51262855
   1.30304182 14.63789273 10.68697167
  15.89655877 14.63789273  6.51262855
   2.56170846 10.68697167 15.89655877
   2.56170846  6.51262855  1.30304182
  14.63789273 10.68697167  1.30304182
  14.63789273  6.51262855 15.89655877
   7.66052962  1.47899354  9.53907012
   9.53907012 15.72060680  9.53907012
   9.53907012  1.47899354  7.66052962
   7.66052962 15.72060680  7.66052962
   9.53907012  7.66052962  1.47899354
   9.53907012  9.53907012 15.72060680
   7.66052962  9.53907012  1.47899354
   7.66052962  7.66052962 15.72060680
   1.47899354  9.53907012  7.66052962
  15.72060680  9.53907012  9.53907012
   1.47899354  7.66052962  9.53907012
  15.72060680  7.66052962  7.66052962
  16.26033021 10.07879353  0.93927044
   0.93927044  7.12080621  0.93927044
   0.93927044 10.07879353 16.26033021
  16.26033021  7.12080621 16.26033021
   0.93927044 16.26033021 10.07879353
   0.93927044  0.93927044  7.12080621
  16.26033021  0.93927044 10.07879353
  16.26033021 16.26033021  7.12080621
  10.07879353  0.93927044 16.26033021
   7.12080621  0.93927044  0.93927044
  10.07879353 16.26033021  0.93927044
   7.12080621 16.26033021 16.26033021
 


--------------------------------------------------------------------------------------------------------


 use serial FFT for orbitals x direction half grid
 k-point  1 :   0.0000 0.0000 0.0000  plane waves:   46175

 maximum and minimum number of plane-waves per node :     46175    46175

 maximum number of plane-waves:     46175
 maximum index in each direction: 
   IXMAX=   28   IYMAX=   28   IZMAX=   28
   IXMIN=    0   IYMIN=  -28   IZMIN=  -28


 serial   3D FFT for wavefunctions
 parallel 3D FFT for charge:
    minimum data exchange during FFTs selected (reduces bandwidth)


 total amount of memory used by VASP MPI-rank0   129629. kBytes
=======================================================================

   base      :      30000. kBytes
   nonlr-proj:      21638. kBytes
   fftplans  :      10925. kBytes
   grid      :      42279. kBytes
   one-center:       2146. kBytes
   wavefun   :      22641. kBytes
 
     INWAV:  cpu time    0.0000: real time    0.0000
 Broyden mixing: mesh for mixing (old mesh)
   NGX = 57   NGY = 57   NGZ = 57
  (NGX  =168   NGY  =168   NGZ  =168)
  gives a total of 185193 points

 initial charge density was supplied:
 charge density of overlapping atoms calculated
 number of electron     888.0000000 magnetization 
 keeping initial charge density in first step


--------------------------------------------------------------------------------------------------------


 Maximum index for non-local projection operator         2130
 Maximum index for augmentation-charges          346 (set IRDMAX)


--------------------------------------------------------------------------------------------------------


 First call to EWALD:  gamma=   0.103
 Maximum number of real-space cells 3x 3x 3
 Maximum number of reciprocal cells 3x 3x 3

    FEWALD:  cpu time    0.0226: real time    0.0226


--------------------------------------- Iteration      1(   1)  ---------------------------------------


    POTLOK:  cpu time    0.1586: real time    0.1604
    SETDIJ:  cpu time    0.0196: real time    0.0211
     EDDAV:  cpu time    4.0346: real time    4.0456
       DOS:  cpu time    0.0034: real time    0.0035
    --------------------------------------------
      LOOP:  cpu time    4.2163: real time    4.2305

 eigenvalue-minimisations  :  1220
 total energy-change (2. order) : 0.7831268E+04  (-0.3677343E+05)
 number of electron     888.0000000 magnetization 
 augmentation part      888.0000000 magnetization 

 Free energy of the ion-electron system (eV)
  ---------------------------------------------------
  alpha Z        PSCENC =       851.85637024
  Ewald energy   TEWEN  =     29510.33520145
  -Hartree energ DENC   =    -71162.05862924
  -exchange      EXHF   =         0.00000000
  -V(xc)+E(xc)   XCENC  =      3179.68772528
  PAW double counting   =     37973.72068456   -40217.39778212
  entropy T*S    EENTRO =        -0.07084276
  eigenvalues    EBANDS =     -1607.13961848
  atomic energy  EATOM  =     49302.33479883
  Solvation  Ediel_sol  =         0.00000000
  ---------------------------------------------------
  free energy    TOTEN  =      7831.26790777 eV

  energy without entropy =     7831.33875052  energy(sigma->0) =     7831.30332914


--------------------------------------------------------------------------------------------------------




--------------------------------------- Iteration      1(   2)  ---------------------------------------


     EDDAV:  cpu time    4.9896: real time    5.0058
       DOS:  cpu time    0.0027: real time    0.0027
    --------------------------------------------
      LOOP:  cpu time    4.9923: real time    5.0086

 eigenvalue-minimisations  :  1580
 total energy-change (2. order) :-0.8368725E+04  (-0.7991769E+04)
 number of electron     888.0000000 magnetization 
 augmentation part      888.0000000 magnetization 

 Free energy of the ion-electron system (eV)
  ---------------------------------------------------
  alpha Z        PSCENC =       851.85637024
  Ewald energy   TEWEN  =     29510.33520145
  -Hartree energ DENC   =    -71162.05862924
  -exchange      EXHF   =         0.00000000
  -V(xc)+E(xc)   XCENC  =      3179.68772528
  PAW double counting   =     37973.72068456   -40217.39778212
  entropy T*S    EENTRO =        -0.00000000
  eigenvalues    EBANDS =     -9975.93540148
  atomic energy  EATOM  =     49302.33479883
  Solvation  Ediel_sol  =         0.00000000
  ---------------------------------------------------
  free energy    TOTEN  =      -537.45703248 eV

  energy without entropy =     -537.45703248  energy(sigma->0) =     -537.45703248


--------------------------------------------------------------------------------------------------------




--------------------------------------- Iteration      1(   3)  ---------------------------------------


     EDDAV:  cpu time    4.6484: real time    4.6734
       DOS:  cpu time    0.0027: real time    0.0027
    --------------------------------------------
      LOOP:  cpu time    4.6511: real time    4.6761

 eigenvalue-minimisations  :  1440
 total energy-change (2. order) :-0.1307920E+04  (-0.1298132E+04)
 number of electron     888.0000000 magnetization 
 augmentation part      888.0000000 magnetization 

 Free energy of the ion-electron system (eV)
  ---------------------------------------------------
  alpha Z        PSCENC =       851.85637024
  Ewald energy   TEWEN  =     29510.33520145
  -Hartree energ DENC   =    -71162.05862924
  -exchange      EXHF   =         0.00000000
  -V(xc)+E(xc)   XCENC  =      3179.68772528
  PAW double counting   =     37973.72068456   -40217.39778212
  entropy T*S    EENTRO =        -0.00000000
  eigenvalues    EBANDS =    -11283.85500726
  atomic energy  EATOM  =     49302.33479883
  Solvation  Ediel_sol  =         0.00000000
  ---------------------------------------------------
  free energy    TOTEN  =     -1845.37663826 eV

  energy without entropy =    -1845.37663826  energy(sigma->0) =    -1845.37663826


--------------------------------------------------------------------------------------------------------




--------------------------------------- Iteration      1(   4)  ---------------------------------------


     EDDAV:  cpu time    4.6368: real time    4.6491
       DOS:  cpu time    0.0029: real time    0.0029
    --------------------------------------------
      LOOP:  cpu time    4.6397: real time    4.6520

 eigenvalue-minimisations  :  1460
 total energy-change (2. order) :-0.5813499E+02  (-0.5772568E+02)
 number of electron     888.0000000 magnetization 
 augmentation part      888.0000000 magnetization 

 Free energy of the ion-electron system (eV)
  ---------------------------------------------------
  alpha Z        PSCENC =       851.85637024
  Ewald energy   TEWEN  =     29510.33520145
  -Hartree energ DENC   =    -71162.05862924
  -exchange      EXHF   =         0.00000000
  -V(xc)+E(xc)   XCENC  =      3179.68772528
  PAW double counting   =     37973.72068456   -40217.39778212
  entropy T*S    EENTRO =        -0.00000000
  eigenvalues    EBANDS =    -11341.98999253
  atomic energy  EATOM  =     49302.33479883
  Solvation  Ediel_sol  =         0.00000000
  ---------------------------------------------------
  free energy    TOTEN  =     -1903.51162353 eV

  energy without entropy =    -1903.51162353  energy(sigma->0) =    -1903.51162353


--------------------------------------------------------------------------------------------------------




--------------------------------------- Iteration      1(   5)  ---------------------------------------


     EDDAV:  cpu time    4.9669: real time    4.9803
       DOS:  cpu time    0.0027: real time    0.0027
    CHARGE:  cpu time    0.3078: real time    0.3088
    MIXING:  cpu time    0.0044: real time    0.0045
    --------------------------------------------
      LOOP:  cpu time    5.2819: real time    5.2962

 eigenvalue-minimisations  :  1580
 total energy-change (2. order) :-0.1940757E+01  (-0.1938317E+01)
 number of electron     888.0004385 magnetization 
 augmentation part      122.6533104 magnetization 

 Broyden mixing:
  rms(total) = 0.72070E+01    rms(broyden)= 0.72043E+01
  rms(prec ) = 0.80151E+01
  weight for this iteration     100.00

 Free energy of the ion-electron system (eV)
  ---------------------------------------------------
  alpha Z        PSCENC =       851.85637024
  Ewald energy   TEWEN  =     29510.33520145
  -Hartree energ DENC   =    -71162.05862924
  -exchange      EXHF   =         0.00000000
  -V(xc)+E(xc)   XCENC  =      3179.68772528
  PAW double counting   =     37973.72068456   -40217.39778212
  entropy T*S    EENTRO =        -0.00000000
  eigenvalues    EBANDS =    -11343.93074988
  atomic energy  EATOM  =     49302.33479883
  Solvation  Ediel_sol  =         0.00000000
  ---------------------------------------------------
  free energy    TOTEN  =     -1905.45238088 eV

  energy without entropy =    -1905.45238088  energy(sigma->0) =    -1905.45238088


--------------------------------------------------------------------------------------------------------




--------------------------------------- Iteration      1(   6)  ---------------------------------------


    POTLOK:  cpu time    0.1308: real time    0.1312
    SETDIJ:  cpu time    0.0158: real time    0.0166
     EDDAV:  cpu time    5.3710: real time    5.3852
       DOS:  cpu time    0.0003: real time    0.0083
    CHARGE:  cpu time    0.2984: real time    0.3034
    MIXING:  cpu time    0.0054: real time    0.0054
    --------------------------------------------
      LOOP:  cpu time    5.8217: real time    5.8502

 eigenvalue-minimisations  :  1760
 total energy-change (2. order) : 0.1426154E+03  (-0.2243048E+02)
 number of electron     888.0004382 magnetization 
 augmentation part      121.9692100 magnetization 

 Broyden mixing:
  rms(total) = 0.41031E+01    rms(broyden)= 0.41029E+01
  rms(prec ) = 0.43764E+01
  weight for this iteration     100.00

 eigenvalues of (default mixing * dielectric matrix)
  average eigenvalue GAMMA=   1.5739
  1.5739

 Free energy of the ion-electron system (eV)
  ---------------------------------------------------
  alpha Z        PSCENC =       851.85637024
  Ewald energy   TEWEN  =     29510.33520145
  -Hartree energ DENC   =    -72374.06104191
  -exchange      EXHF   =         0.00000000
  -V(xc)+E(xc)   XCENC  =      3250.30422002
  PAW double counting   =     53040.69563511   -55262.25006321
  entropy T*S    EENTRO =        -0.00000000
  eigenvalues    EBANDS =    -10082.05208299
  atomic energy  EATOM  =     49302.33479883
  Solvation  Ediel_sol  =         0.00000000
  ---------------------------------------------------
  free energy    TOTEN  =     -1762.83696246 eV

  energy without entropy =    -1762.83696246  energy(sigma->0) =    -1762.83696246


--------------------------------------------------------------------------------------------------------




--------------------------------------- Iteration      1(   7)  ---------------------------------------


    POTLOK:  cpu time    0.1292: real time    0.1300
    SETDIJ:  cpu time    0.0154: real time    0.0160
     EDDAV:  cpu time    4.8053: real time    4.8243
       DOS:  cpu time    0.0027: real time    0.0027
    CHARGE:  cpu time    0.3064: real time    0.3077
    MIXING:  cpu time    0.0056: real time    0.0056
    --------------------------------------------
      LOOP:  cpu time    5.2646: real time    5.2863

 eigenvalue-minimisations  :  1540
 total energy-change (2. order) : 0.2004932E+02  (-0.1629378E+02)
 number of electron     888.0004340 magnetization 
[...]
     15.06186      8.44569     15.06186         0.003502     -0.016616      0.003502
      2.13774     15.06186      8.75391        -0.003502      0.003502      0.016616
      2.13774      2.13774      8.44569        -0.003502     -0.003502     -0.016616
     15.06186      2.13774      8.75391         0.003502     -0.003502      0.016616
     15.06186     15.06186      8.44569         0.003502      0.003502     -0.016616
      8.75391      2.13774     15.06186         0.016616     -0.003502      0.003502
      8.44569      2.13774      2.13774        -0.016616     -0.003502     -0.003502
      8.75391     15.06186      2.13774         0.016616      0.003502     -0.003502
      8.44569     15.06186     15.06186        -0.016616      0.003502      0.003502
      6.88259      1.52268     10.31701        -0.014866     -0.031347      0.014866
     10.31701     15.67692     10.31701         0.014866      0.031347      0.014866
     10.31701      1.52268      6.88259         0.014866     -0.031347     -0.014866
      6.88259     15.67692      6.88259        -0.014866      0.031347     -0.014866
     10.31701      6.88259      1.52268         0.014866     -0.014866     -0.031347
     10.31701     10.31701     15.67692         0.014866      0.014866      0.031347
      6.88259     10.31701      1.52268        -0.014866      0.014866     -0.031347
      6.88259      6.88259     15.67692        -0.014866     -0.014866      0.031347
      1.52268     10.31701      6.88259        -0.031347      0.014866     -0.014866
     15.67692     10.31701     10.31701         0.031347      0.014866      0.014866
      1.52268      6.88259     10.31701        -0.031347     -0.014866      0.014866
     15.67692      6.88259      6.88259         0.031347     -0.014866     -0.014866
     15.48239     10.12248      1.71721        -0.014866     -0.031347      0.014866
      1.71721      7.07712      1.71721         0.014866      0.031347      0.014866
      1.71721     10.12248     15.48239         0.014866     -0.031347     -0.014866
     15.48239      7.07712     15.48239        -0.014866      0.031347     -0.014866
      1.71721     15.48239     10.12248         0.014866     -0.014866     -0.031347
      1.71721      1.71721      7.07712         0.014866      0.014866      0.031347
     15.48239      1.71721     10.12248        -0.014866      0.014866     -0.031347
     15.48239     15.48239      7.07712        -0.014866     -0.014866      0.031347
     10.12248      1.71721     15.48239        -0.031347      0.014866     -0.014866
      7.07712      1.71721      1.71721         0.031347      0.014866      0.014866
     10.12248     15.48239      1.71721        -0.031347     -0.014866      0.014866
      7.07712     15.48239     15.48239         0.031347     -0.014866     -0.014866
      7.06250     16.64182     11.72015        -0.001836     -0.005897      0.008899
     10.13710      0.55778     11.72015         0.001836      0.005897      0.008899
     10.13710     16.64182      5.47945         0.001836     -0.005897     -0.008899
      7.06250      0.55778      5.47945        -0.001836      0.005897     -0.008899
     11.72015      7.06250     16.64182         0.008899     -0.001836     -0.005897
     11.72015     10.13710      0.55778         0.008899      0.001836      0.005897
      5.47945     10.13710     16.64182        -0.008899      0.001836     -0.005897
      5.47945      7.06250      0.55778        -0.008899     -0.001836      0.005897
     16.64182     11.72015      7.06250        -0.005897      0.008899     -0.001836
      0.55778     11.72015     10.13710         0.005897      0.008899      0.001836
     16.64182      5.47945     10.13710        -0.005897     -0.008899      0.001836
      0.55778      5.47945      7.06250         0.005897     -0.008899     -0.001836
     16.64182      7.06250     11.72015        -0.005897     -0.001836      0.008899
      0.55778     10.13710     11.72015         0.005897      0.001836      0.008899
     16.64182     10.13710      5.47945        -0.005897      0.001836     -0.008899
      0.55778      7.06250      5.47945         0.005897     -0.001836     -0.008899
      7.06250     11.72015     16.64182        -0.001836      0.008899     -0.005897
     10.13710     11.72015      0.55778         0.001836      0.008899      0.005897
     10.13710      5.47945     16.64182         0.001836     -0.008899     -0.005897
      7.06250      5.47945      0.55778        -0.001836     -0.008899      0.005897
     11.72015     16.64182      7.06250         0.008899     -0.005897     -0.001836
     11.72015      0.55778     10.13710         0.008899      0.005897      0.001836
      5.47945     16.64182     10.13710        -0.008899     -0.005897      0.001836
      5.47945      0.55778      7.06250        -0.008899      0.005897     -0.001836
     15.66230      8.04202      3.12035        -0.001836     -0.005897      0.008899
      1.53730      9.15758      3.12035         0.001836      0.005897      0.008899
      1.53730      8.04202     14.07925         0.001836     -0.005897     -0.008899
     15.66230      9.15758     14.07925        -0.001836      0.005897     -0.008899
      3.12035     15.66230      8.04202         0.008899     -0.001836     -0.005897
      3.12035      1.53730      9.15758         0.008899      0.001836      0.005897
     14.07925      1.53730      8.04202        -0.008899      0.001836     -0.005897
     14.07925     15.66230      9.15758        -0.008899     -0.001836      0.005897
      8.04202      3.12035     15.66230        -0.005897      0.008899     -0.001836
      9.15758      3.12035      1.53730         0.005897      0.008899      0.001836
      8.04202     14.07925      1.53730        -0.005897     -0.008899      0.001836
      9.15758     14.07925     15.66230         0.005897     -0.008899     -0.001836
      8.04202     15.66230      3.12035        -0.005897     -0.001836      0.008899
      9.15758      1.53730      3.12035         0.005897      0.001836      0.008899
      8.04202      1.53730     14.07925        -0.005897      0.001836     -0.008899
      9.15758     15.66230     14.07925         0.005897     -0.001836     -0.008899
     15.66230      3.12035      8.04202        -0.001836      0.008899     -0.005897
      1.53730      3.12035      9.15758         0.001836      0.008899      0.005897
      1.53730     14.07925      8.04202         0.001836     -0.008899     -0.005897
     15.66230     14.07925      9.15758        -0.001836     -0.008899      0.005897
      3.12035      8.04202     15.66230         0.008899     -0.005897     -0.001836
      3.12035      9.15758      1.53730         0.008899      0.005897      0.001836
     14.07925      8.04202      1.53730        -0.008899     -0.005897      0.001836
     14.07925      9.15758     15.66230        -0.008899      0.005897     -0.001836
      8.59980      0.00000     12.89970        -0.000000      0.000000      0.000000
      8.59980      0.00000      4.29990        -0.000000      0.000000      0.000000
     12.89970      8.59980      0.00000        -0.000000      0.000000      0.000000
      4.29990      8.59980      0.00000        -0.000000      0.000000      0.000000
      0.00000     12.89970      8.59980        -0.000000      0.000000      0.000000
      0.00000      4.29990      8.59980        -0.000000      0.000000      0.000000
      0.00000      8.59980     12.89970        -0.000000      0.000000      0.000000
      0.00000      8.59980      4.29990        -0.000000      0.000000      0.000000
      8.59980     12.89970      0.00000        -0.000000      0.000000      0.000000
      8.59980      4.29990      0.00000        -0.000000      0.000000      0.000000
     12.89970      0.00000      8.59980        -0.000000      0.000000      0.000000
      4.29990      0.00000      8.59980        -0.000000      0.000000      0.000000
      6.73296     14.62792     12.42413         0.010559     -0.024304      0.023637
     10.46664      2.57168     12.42413        -0.010559      0.024304      0.023637
     10.46664     14.62792      4.77547        -0.010559     -0.024304     -0.023637
      6.73296      2.57168      4.77547         0.010559      0.024304     -0.023637
     12.42413      6.73296     14.62792         0.023637      0.010559     -0.024304
     12.42413     10.46664      2.57168         0.023637     -0.010559      0.024304
      4.77547     10.46664     14.62792        -0.023637     -0.010559     -0.024304
      4.77547      6.73296      2.57168        -0.023637      0.010559      0.024304
     14.62792     12.42413      6.73296        -0.024304      0.023637      0.010559
      2.57168     12.42413     10.46664         0.024304      0.023637     -0.010559
     14.62792      4.77547     10.46664        -0.024304     -0.023637     -0.010559
      2.57168      4.77547      6.73296         0.024304     -0.023637      0.010559
     14.62792      6.73296     12.42413        -0.024304      0.010559      0.023637
      2.57168     10.46664     12.42413         0.024304     -0.010559      0.023637
     14.62792     10.46664      4.77547        -0.024304     -0.010559     -0.023637
      2.57168      6.73296      4.77547         0.024304      0.010559     -0.023637
      6.73296     12.42413     14.62792         0.010559      0.023637     -0.024304
     10.46664     12.42413      2.57168        -0.010559      0.023637      0.024304
     10.46664      4.77547     14.62792        -0.010559     -0.023637     -0.024304
      6.73296      4.77547      2.57168         0.010559     -0.023637      0.024304
     12.42413     14.62792      6.73296         0.023637     -0.024304      0.010559
     12.42413      2.57168     10.46664         0.023637      0.024304     -0.010559
      4.77547     14.62792     10.46664        -0.023637     -0.024304     -0.010559
      4.77547      2.57168      6.73296        -0.023637      0.024304      0.010559
     15.33276      6.02812      3.82433         0.010559     -0.024304      0.023637
      1.86685     11.17148      3.82433        -0.010559      0.024304      0.023637
      1.86685      6.02812     13.37527        -0.010559     -0.024304     -0.023637
     15.33276     11.17148     13.37527         0.010559      0.024304     -0.023637
      3.82433     15.33276      6.02812         0.023637      0.010559     -0.024304
      3.82433      1.86685     11.17148         0.023637     -0.010559      0.024304
     13.37527      1.86685      6.02812        -0.023637     -0.010559     -0.024304
     13.37527     15.33276     11.17148        -0.023637      0.010559      0.024304
      6.02812      3.82433     15.33276        -0.024304      0.023637      0.010559
     11.17148      3.82433      1.86685         0.024304      0.023637     -0.010559
      6.02812     13.37527      1.86685        -0.024304     -0.023637     -0.010559
     11.17148     13.37527     15.33276         0.024304     -0.023637      0.010559
      6.02812     15.33276      3.82433        -0.024304      0.010559      0.023637
     11.17148      1.86685      3.82433         0.024304     -0.010559      0.023637
      6.02812      1.86685     13.37527        -0.024304     -0.010559     -0.023637
     11.17148     15.33276     13.37527         0.024304      0.010559     -0.023637
     15.33276      3.82433      6.02812         0.010559      0.023637     -0.024304
      1.86685      3.82433     11.17148        -0.010559      0.023637      0.024304
      1.86685     13.37527      6.02812        -0.010559     -0.023637     -0.024304
     15.33276     13.37527     11.17148         0.010559     -0.023637      0.024304
      3.82433      6.02812     15.33276         0.023637     -0.024304      0.010559
      3.82433     11.17148      1.86685         0.023637      0.024304     -0.010559
     13.37527      6.02812      1.86685        -0.023637     -0.024304     -0.010559
     13.37527     11.17148     15.33276        -0.023637      0.024304      0.010559
      7.29676      2.08717     11.16151         0.014495      0.019727      0.029694
      9.90284     15.11243     11.16151        -0.014495     -0.019727      0.029694
      9.90284      2.08717      6.03809        -0.014495      0.019727     -0.029694
      7.29676     15.11243      6.03809         0.014495     -0.019727     -0.029694
     11.16151      7.29676      2.08717         0.029694      0.014495      0.019727
     11.16151      9.90284     15.11243         0.029694     -0.014495     -0.019727
      6.03809      9.90284      2.08717        -0.029694     -0.014495      0.019727
      6.03809      7.29676     15.11243        -0.029694      0.014495     -0.019727
      2.08717     11.16151      7.29676         0.019727      0.029694      0.014495
     15.11243     11.16151      9.90284        -0.019727      0.029694     -0.014495
      2.08717      6.03809      9.90284         0.019727     -0.029694     -0.014495
     15.11243      6.03809      7.29676        -0.019727     -0.029694      0.014495
      2.08717      7.29676     11.16151         0.019727      0.014495      0.029694
     15.11243      9.90284     11.16151        -0.019727     -0.014495      0.029694
      2.08717      9.90284      6.03809         0.019727     -0.014495     -0.029694
     15.11243      7.29676      6.03809        -0.019727      0.014495     -0.029694
      7.29676     11.16151      2.08717         0.014495      0.029694      0.019727
      9.90284     11.16151     15.11243        -0.014495      0.029694     -0.019727
      9.90284      6.03809      2.08717        -0.014495     -0.029694      0.019727
      7.29676      6.03809     15.11243         0.014495     -0.029694     -0.019727
     11.16151      2.08717      7.29676         0.029694      0.019727      0.014495
     11.16151     15.11243      9.90284         0.029694     -0.019727     -0.014495
      6.03809      2.08717      9.90284        -0.029694      0.019727     -0.014495
      6.03809     15.11243      7.29676        -0.029694     -0.019727      0.014495
     15.89656     10.68697      2.56171         0.014495      0.019727      0.029694
      1.30304      6.51263      2.56171        -0.014495     -0.019727      0.029694
      1.30304     10.68697     14.63789        -0.014495      0.019727     -0.029694
     15.89656      6.51263     14.63789         0.014495     -0.019727     -0.029694
      2.56171     15.89656     10.68697         0.029694      0.014495      0.019727
      2.56171      1.30304      6.51263         0.029694     -0.014495     -0.019727
     14.63789      1.30304     10.68697        -0.029694     -0.014495      0.019727
     14.63789     15.89656      6.51263        -0.029694      0.014495     -0.019727
     10.68697      2.56171     15.89656         0.019727      0.029694      0.014495
      6.51263      2.56171      1.30304        -0.019727      0.029694     -0.014495
     10.68697     14.63789      1.30304         0.019727     -0.029694     -0.014495
      6.51263     14.63789     15.89656        -0.019727     -0.029694      0.014495
     10.68697     15.89656      2.56171         0.019727      0.014495      0.029694
      6.51263      1.30304      2.56171        -0.019727     -0.014495      0.029694
     10.68697      1.30304     14.63789         0.019727     -0.014495     -0.029694
      6.51263     15.89656     14.63789        -0.019727      0.014495     -0.029694
     15.89656      2.56171     10.68697         0.014495      0.029694      0.019727
      1.30304      2.56171      6.51263        -0.014495      0.029694     -0.019727
      1.30304     14.63789     10.68697        -0.014495     -0.029694      0.019727
     15.89656     14.63789      6.51263         0.014495     -0.029694     -0.019727
      2.56171     10.68697     15.89656         0.029694      0.019727      0.014495
      2.56171      6.51263      1.30304         0.029694     -0.019727     -0.014495
     14.63789     10.68697      1.30304        -0.029694      0.019727     -0.014495
     14.63789      6.51263     15.89656        -0.029694     -0.019727      0.014495
      7.66053      1.47899      9.53907         0.032201     -0.002228     -0.032201
      9.53907     15.72061      9.53907        -0.032201      0.002228     -0.032201
      9.53907      1.47899      7.66053        -0.032201     -0.002228      0.032201
      7.66053     15.72061      7.66053         0.032201      0.002228      0.032201
      9.53907      7.66053      1.47899        -0.032201      0.032201     -0.002228
      9.53907      9.53907     15.72061        -0.032201     -0.032201      0.002228
      7.66053      9.53907      1.47899         0.032201     -0.032201     -0.002228
      7.66053      7.66053     15.72061         0.032201      0.032201      0.002228
      1.47899      9.53907      7.66053        -0.002228     -0.032201      0.032201
     15.72061      9.53907      9.53907         0.002228     -0.032201     -0.032201
      1.47899      7.66053      9.53907        -0.002228      0.032201     -0.032201
     15.72061      7.66053      7.66053         0.002228      0.032201      0.032201
     16.26033     10.07879      0.93927         0.032201     -0.002228     -0.032201
      0.93927      7.12081      0.93927        -0.032201      0.002228     -0.032201
      0.93927     10.07879     16.26033        -0.032201     -0.002228      0.032201
     16.26033      7.12081     16.26033         0.032201      0.002228      0.032201
      0.93927     16.26033     10.07879        -0.032201      0.032201     -0.002228
      0.93927      0.93927      7.12081        -0.032201     -0.032201      0.002228
     16.26033      0.93927     10.07879         0.032201     -0.032201     -0.002228
     16.26033     16.26033      7.12081         0.032201      0.032201      0.002228
     10.07879      0.93927     16.26033        -0.002228     -0.032201      0.032201
      7.12081      0.93927      0.93927         0.002228     -0.032201     -0.032201
     10.07879     16.26033      0.93927        -0.002228      0.032201     -0.032201
      7.12081     16.26033     16.26033         0.002228      0.032201      0.032201
 -----------------------------------------------------------------------------------
    total drift:                               -0.000257     -0.000257     -0.000257


--------------------------------------------------------------------------------------------------------



  FREE ENERGIE OF THE ION-ELECTRON SYSTEM (eV)
  ---------------------------------------------------
  free  energy   TOTEN  =     -1740.68011920 eV

  energy  without entropy=    -1740.68011920  energy(sigma->0) =    -1740.68011920
 


--------------------------------------------------------------------------------------------------------


    POTLOK:  cpu time    0.1453: real time    0.1457


--------------------------------------------------------------------------------------------------------


     LOOP+:  cpu time  126.0719: real time  126.5020
    4ORBIT:  cpu time    0.0000: real time    0.0000

 total amount of memory used by VASP MPI-rank0   129629. kBytes
=======================================================================

   base      :      30000. kBytes
   nonlr-proj:      21638. kBytes
   fftplans  :      10925. kBytes
   grid      :      42279. kBytes
   one-center:       2146. kBytes
   wavefun   :      22641. kBytes
 
  
  
 General timing and accounting informations for this job:
 ========================================================
  
                  Total CPU time used (sec):      129.652
                            User time (sec):      128.143
                          System time (sec):        1.509
                         Elapsed time (sec):      130.536
  
                   Maximum memory used (kb):      345160.
                   Average memory used (kb):           0.
  
                          Minor page faults:       553383
                          Major page faults:           11
                 Voluntary context switches:         1601
