  4.6721739e-01   2.1999578e-03
  2.0502301e-02   1.6124218e-03
 -1.7123477e-03   5.2332669e-04
 -4.6545285e-01   1.0409494e-03
  3.8558114e-03   2.4379191e-03
 -2.5657311e-01   1.5486053e-03
 -1.3909493e-02   8.3307978e-03
 -2.3187278e-02   1.1630574e-03
  2.4430476e-02   3.2251519e-03
 -1.5118930e-02   4.1617765e-03
 -3.6206529e-02   6.3930983e-03
 -3.9582908e-02   1.8275521e-03
 -5.6967384e-01   8.2943722e-04
  1.2056162e-01   5.8854460e-03
  2.5408551e-01   2.2325334e-03
 -1.3534167e-01   4.2507579e-03
 -1.5889623e-03   2.9487461e-03
  7.7601019e-03   1.1521019e-02
  1.0515895e-02   3.1518165e-03
 -5.9365071e-02   3.1485013e-03
 -1.2256840e-03   9.9000614e-04
  2.0758638e-02   5.1820423e-03
 -5.1331371e-01   3.0336596e-04
  3.2033738e-02   4.5754996e-04
  3.4327719e-02   5.7172673e-03
  1.5441378e+00   1.0304253e-03
  4.0516917e-02   1.0469244e-02
  5.6039989e-02   1.0210878e-02
  7.9518504e-02   7.6732920e-03
  5.0243605e-03   1.0499928e-02
 -4.1307920e-01   2.8955948e-04
 -8.7667406e-03   9.5198080e-03
  1.2580670e-02   6.0613505e-03
 -7.2451392e-03   9.2436578e-03
  3.1036744e-02   4.0227608e-03
 -5.3651868e-03   7.0487434e-04
 -2.8160197e-01   3.7632324e-03
 -5.5323220e-03   5.4932931e-03
 -3.2065418e-02   5.5952636e-03
 -1.8646671e-02   4.1105174e-03
 -8.4165977e-03   7.6367487e-03
 -9.1617517e-02   9.3118542e-05
  4.1260645e-01   1.6333369e-03
 -2.9849485e-01   1.0299282e-03
  1.6052553e-02   8.0130552e-04
 -5.0909549e-01   1.4749619e-04
 -1.1645954e-01   1.4465075e-03
 -1.0348436e+00   1.0043040e-04
 -5.8617519e-04   1.5822334e-03
 -1.5005527e-01   2.5558870e-04
 -8.7134212e-02   7.0467341e-04
  1.6864142e-01   2.7769853e-04
 -1.9100542e-01   1.0408231e-03
  1.6846035e-01   3.6511075e-04
 -1.3783352e-02   1.5425592e-03
  1.6468545e-02   1.4097757e-03
  1.0637041e-02   4.5186277e-03
 -1.0875300e-01   1.3125614e-03
 -1.6874693e-02   1.0999700e-02
 -8.2681850e-02   1.6189995e-03
 -2.4459730e-01   1.6833036e-03
  4.7648275e-01   1.3964789e-03
 -2.1180432e-02   5.2101747e-03
  2.7903018e-03   1.2089357e-03
 -5.7863286e-03   2.7204778e-03
  1.2132099e-01   9.3288971e-03
 -2.8010425e-03   2.2863683e-03
 -1.7259227e-02   4.4658068e-03
  7.4132462e-03   1.7952278e-03
 -4.0476779e-03   3.2134869e-03
  2.8943274e-02   2.5716911e-03
  5.6523874e-02   5.2238987e-03
  1.0452789e-02   2.0796845e-03
  2.1418504e-01   3.1004925e-03
  1.1566993e-02   1.3969149e-02
 -2.9513079e-01   1.8168242e-03
  2.5862271e-02   7.4646217e-03
  1.7864822e-01   5.4052426e-03
  6.5690935e-01   1.2495912e-04
  5.4896433e-02   4.5254006e-04
  1.1622350e-02   3.2692566e-03
  1.3260739e-01   3.7146392e-03
 -1.9919848e-02   4.9401638e-03
 -2.9402900e-02   8.5894903e-03
 -6.3654527e-02   6.5190219e-03
  2.7012620e-02   9.5041730e-03
 -2.5064063e-03   1.5690941e-03
  6.3797734e-03   8.6343838e-03
 -4.0232878e-02   5.9970734e-03
  2.7170133e-02   3.9714342e-03
 -7.3564112e-02   4.6521532e-03
  3.6114123e-01   2.1068964e-03
 -3.7401756e-03   9.5701795e-03
 -8.2279919e-03   3.8695147e-03
  1.0168082e-01   1.9559646e-03
  1.3672334e-02   9.0862755e-03
 -5.7832308e-02   7.2350409e-03
  7.9995044e-02   4.0780799e-03
 -3.0971782e-02   4.1076983e-03
  8.0092512e-03   1.3047958e-02
 -5.6509906e-01   5.5946823e-04
 -7.4585336e-03   1.2883201e-02
  2.5643164e-04   3.3838262e-03
 -5.0172132e-02   1.0871219e-02
  2.8862353e-02   1.1051171e-02
 -1.2778766e-02   1.4359703e-03
  1.3757669e-02   6.3350024e-03
  1.1094442e-01   3.6739155e-03
 -2.9929578e-02   2.4299631e-03
  2.0425593e-02   8.5268989e-03
 -1.9866158e-01   7.6056889e-04
 -3.1094395e-03   7.5259916e-03
 -5.4964133e-02   5.7847244e-03
  7.4125677e-03   2.2414387e-03
 -6.0726028e-02   3.8068406e-03
  1.0604601e-02   7.4373414e-03
  1.6788214e-02   1.2557317e-02
  4.5114610e-02   9.8157953e-03
 -1.6919144e-03   5.9984680e-03
 -2.9852064e-03   1.2245604e-03
  2.8819889e-02   1.1284254e-02
 -1.8795975e-03   1.7685993e-03
  4.0723905e-02   2.6287304e-03
  1.2531171e+00   4.1431401e-04
  1.6294841e+00   4.9446695e-05
  1.8011148e-01   1.2748077e-03
  8.4079534e-01   6.7714012e-05
 -2.1896982e-01   5.3710546e-03
 -2.0297435e-01   1.7262712e-03
 -7.3839945e-01   3.0373063e-04
  7.1844828e-01   4.2972181e-04
 -1.1628431e+00   2.6159477e-04
 -7.1370542e-01   4.7422442e-04
 -2.6084926e+00   1.5080925e-04
 -6.5732110e-01   6.3345901e-04
 -1.2416661e+00   5.0713791e-04
  1.7453495e-02   8.5267980e-05
  2.2038080e-01   1.5319140e-03
 -5.0216042e-02   2.4632225e-03
 -9.5967732e-02   3.5160282e-03
  2.6293419e-02   6.1785402e-03
  3.8112959e-01   4.2246125e-04
  9.4710803e-04   1.2797270e-03
  1.8122063e+00   4.3472691e-04
  9.2602983e-02   6.4100092e-03
  3.6653783e-02   6.8763932e-03
  5.2780114e-02   2.8713322e-03
  1.9085253e-02   1.2086633e-03
 -1.3754214e+00   7.3418004e-04
  7.9873782e-01   2.3982071e-03
 -4.0704988e-02   1.3402710e-03
 -5.9931681e-02   4.2767758e-03
 -3.2403688e-03   2.6132704e-03
 -2.0113380e-01   1.1372776e-03
  7.4002622e-03   2.3441266e-03
 -1.8771783e-01   8.3778688e-04
 -3.9304003e-02   6.7963670e-03
  5.5332184e-01   2.7064001e-04
  7.9994656e-02   1.0850893e-03
 -1.8311100e-02   2.6947910e-03
 -1.7032566e-04   6.2191841e-04
  2.6170978e-01   5.5004674e-04
 -7.0881879e-01   1.0302973e-03
  1.4377181e-01   3.3917481e-03
 -1.0250729e-02   2.8422447e-03
 -1.4665943e-01   2.3614567e-04
  4.6052981e-02   1.1126081e-03
 -6.3536865e-01   2.3376453e-03
 -1.1263381e-01   5.6554045e-04
 -1.9381483e-01   1.4316147e-03
 -3.1186523e-02   2.1977588e-03
  4.6613041e-01   4.5303506e-04
  3.5545640e-02   1.8771979e-04
 -5.0716996e-02   1.1992784e-03
 -5.4376024e-01   2.8240064e-04
  4.0510669e-02   5.7304651e-04
 -2.3812807e-01   2.1942365e-03
 -8.6921096e-02   3.0115256e-03
 -1.5384297e-02   1.1800005e-03
  1.2017997e-02   3.5432049e-03
  2.5054721e-02   4.0728683e-03
 -5.0971073e-01   2.6542842e-04
  3.6223620e-02   2.4560988e-03
  1.1866030e-01   2.9119181e-03
  2.2767019e-02   2.9197356e-03
 -2.8343095e-02   3.0758688e-03
  3.1181946e-02   2.5696093e-03
 -5.7041264e-01   7.9297891e-04
  3.6486033e-03   3.1346211e-03
  1.2284554e-02   2.1049257e-03
 -6.3156880e-02   1.0481790e-02
 -5.0572408e-03   8.7664351e-03
  6.8525344e-02   1.4713006e-03
  1.0332484e-02   7.3700969e-04
  2.9535770e-01   1.2197951e-03
  1.2809432e-02   2.1180778e-03
  3.6801202e-03   4.4106590e-03
 -3.8865186e-02   4.7191043e-04
  1.3043317e-03   2.6762572e-03
 -1.0239764e-01   3.9429679e-03
  1.2996292e-01   1.7409167e-03
 -5.2354424e-03   7.5197750e-04
 -1.4942461e-01   1.5633974e-03
 -1.6473839e-01   2.7558289e-03
  6.5717087e-03   1.5390377e-03
  1.0556433e-01   4.8356692e-04
  5.5076968e-02   8.7904470e-04
 -9.6481532e-02   2.0933665e-04
  7.3207486e-01   6.8397872e-04
  1.2342267e-02   6.1819400e-04
  3.4718364e-01   1.1979441e-04
  1.9506326e-01   7.5374579e-04
 -2.0529884e-01   5.6779856e-04
 -1.1061503e-02   9.1587927e-04
  5.8909204e-02   2.1354963e-04
  7.8740829e-01   2.7038626e-04
  4.3790925e-01   3.1060245e-04
  4.4414800e-02   5.8156968e-04
  2.8122064e-02   2.3222512e-03
 -1.0071788e-02   2.1017753e-03
  1.5364624e-02   3.6812753e-03
  1.9009154e-02   1.1304861e-03
 -1.0154513e-02   3.1009100e-03
 -8.9820117e-02   9.1901311e-04
  3.9989408e-02   5.5133007e-03
 -2.3191106e-01   1.1846286e-03
 -2.0755751e-01   2.5482711e-03
  1.2378860e-02   7.1339682e-03
  2.7654529e-01   7.4910821e-04
 -3.5582114e-02   4.5680678e-03
 -4.4399507e-02   3.7669647e-03
 -1.4572392e-02   9.5626088e-03
 -5.3823996e-02   2.6167461e-03
  2.0277877e-01   7.8546131e-05
 -9.2798524e-02   3.5528869e-03
 -2.1942955e-01   2.1545715e-03
  1.8264933e-02   3.3262651e-03
  2.6259772e-02   4.1192756e-03
  1.1952829e-02   2.7485071e-03
  9.8434620e-02   5.5884552e-04
  5.8619626e-02   5.1002055e-03
 -2.2771019e-02   4.0836525e-04
  8.0840819e-02   9.6367596e-04
  1.4554879e-01   4.0994165e-04
  1.1095555e-02   3.2284989e-03
 -2.9803237e-01   1.0984662e-03
  1.9282152e-01   6.0492574e-04
  9.2571670e-01   2.4013821e-04
  7.8425944e-01   5.5357721e-04
 -5.3005707e-01   1.4544695e-03
 -4.3485057e-01   6.4737425e-04
 -2.3198359e-01   5.6121300e-04
  2.4105060e-01   1.9451547e-03
 -1.6751940e+00   4.0363707e-04
  8.5217819e-02   4.8555605e-04
 -2.2337217e-02   4.9598864e-04
 -1.5608296e-01   2.5779704e-04
  2.3941076e-01   1.5352077e-04
  3.7129304e-01   9.9140988e-04
  3.3600565e-02   2.1163771e-04
  2.3080921e-02   1.4273118e-03
 -1.5540716e-01   3.6730836e-04
  7.3022462e-02   1.6974667e-04
  5.5108997e-03   2.9587131e-03
 -3.9302114e-01   1.7594062e-03
 -1.3671948e-03   7.0595241e-04
 -2.8424013e-01   1.5719102e-03
 -9.7499236e-02   7.5149856e-04
 -2.1792530e-01   9.0256403e-04
 -5.7786666e-02   6.9523312e-04
 -9.1904871e-02   2.7953368e-03
  1.5768811e-01   3.7114657e-03
  1.3773197e-01   2.6931048e-03
  3.0416831e-01   2.9274693e-03
 -7.5687192e-02   2.0999375e-03
 -6.5225154e-02   6.7874719e-04
 -2.3319753e-01   2.3794700e-03
  4.3391332e-01   5.4529742e-03
  3.9872205e-01   2.3101433e-05
 -1.8649472e-01   8.1919003e-03
  2.6608863e-01   1.3518607e-03
  6.0506248e-01   1.2796952e-03
 -1.8133973e-01   2.4430969e-04
  2.8674102e-01   1.8504068e-03
  6.2819920e-02   6.1877078e-04
  9.1815811e-01   2.0134791e-03
 -2.6558653e-01   2.1638570e-03
 -1.8037413e-01   3.4176616e-04
  4.6414196e-02   5.1384221e-04
 -1.0593260e-01   1.6031148e-03
 -2.9211339e-01   2.8694340e-04
  1.4376836e-01   1.0031663e-03
 -2.2397183e-01   1.2797227e-03
 -5.7107455e-01   7.8305507e-05
 -6.0395360e-02   6.6180690e-04
 -4.9724263e-01   5.1599636e-04
 -4.9424261e-01   3.2731108e-04
 -4.0918586e-01   1.0695177e-03
 -2.1789465e-02   5.4119114e-04
 -2.8743559e-01   5.4956094e-04
 -1.4612250e-02   1.9667619e-03
 -8.6733894e-03   3.9773588e-03
 -6.3283287e-04   8.6885726e-04
  4.1224558e-02   2.7603833e-03
 -1.3685508e-01   1.6245288e-03
  2.0903595e-02   3.9512975e-04
 -1.3899405e-02   7.4376254e-03
  2.2666334e-01   5.5170720e-03
  5.9853986e-02   4.1208854e-03
  8.7868632e-04   7.1048766e-04
  1.1927625e-03   7.7018142e-04
 -1.7780215e-01   1.7013613e-03
  1.5520542e-02   1.5762490e-03
  9.4407666e-03   2.3276841e-03
  3.0230522e-01   1.3053544e-03
  1.6703533e-01   1.5211385e-03
 -8.2588769e-02   7.2584447e-04
  9.3087666e-02   2.5997693e-03
 -6.5935589e-02   4.1053053e-03
  1.0168378e-02   2.4522602e-04
  1.0403436e-02   7.5825434e-03
 -1.1225385e-01   1.3917184e-03
 -1.2395424e-01   5.6139589e-03
 -3.0403328e-03   4.7132574e-04
 -1.4972889e-02   5.2004270e-03
  1.2394611e-01   2.6775245e-04
 -3.1342223e-02   1.6818190e-03
  2.9075348e-01   2.1326304e-03
  5.6289162e-02   2.5135992e-04
  1.9383769e-01   1.6508241e-04
 -2.9028784e-02   4.9517676e-04
 -3.1228027e-01   4.8708022e-04
  2.8959218e-01   2.8093005e-04
 -1.3158536e-01   2.5231382e-04
 -2.9594427e-01   7.0044756e-05
  9.7793937e-02   1.1661912e-03
  3.5344049e-01   4.7023324e-04
 -6.0557697e-02   8.2827656e-04
 -3.3177826e-01   1.6129216e-04
  9.3534682e-03   1.1349855e-03
  1.0768499e-01   4.2158409e-04
 -2.3156870e-02   4.7218296e-04
  4.4754043e-02   1.7206053e-03
  6.7022094e-04   1.2714812e-03
  5.9630689e-03   7.5350172e-04
 -9.5269904e-03   3.3674524e-03
  2.2707255e-01   1.0296635e-03
  4.4202115e-02   4.2120265e-03
 -8.2265846e-02   6.0311140e-04
  3.1294981e-01   7.5961896e-03
  3.0561587e-01   2.5437362e-03
  4.9288574e-01   1.1259161e-03
  3.4138134e-03   8.2650818e-03
  2.7345032e-03   1.9788779e-03
  3.0831002e-02   1.1961805e-02
  2.9135643e-02   2.7990920e-04
  2.9294643e-01   2.7903195e-03
  1.7166777e-01   1.0538998e-03
 -3.3049610e-02   1.4722625e-03
  3.1257436e-02   3.1613947e-03
 -1.1872007e-02   2.6993309e-03
 -1.0473402e-01   1.3622461e-03
 -5.3995539e-02   1.0133985e-03
  3.4313005e-01   1.6591317e-04
  2.6300371e-01   8.2307361e-04
 -3.2009237e-02   2.8861868e-03
 -2.8817615e-01   8.0907275e-04
 -1.0371741e-01   1.2306480e-03
  6.4099997e-02   5.7053030e-04
  4.0382472e-01   1.2990729e-04
 -3.1897736e-01   4.7589143e-04
 -6.0883856e-01   2.0296045e-04
  8.8207471e-01   1.1483209e-03
  1.0653529e-01   4.4479145e-04
 -4.9476957e-01   8.4901723e-04
 -1.7758522e+00   8.7711494e-04
  1.2754241e-01   3.4726376e-04
  2.7211779e-01   3.1486474e-04
  2.5972578e-01   2.1239747e-04
  7.0722476e-02   1.4035797e-04
 -4.9427141e-02   1.5232875e-04
  3.7026035e-03   4.5862657e-04
 -1.0708151e-02   2.8789495e-03
 -3.2382011e-01   1.3750127e-03
  4.8960283e-01   9.5169625e-04
  4.2197920e-02   4.8466696e-04
  9.9595608e-03   4.6567353e-03
 -1.5205733e-02   8.1208232e-04
 -3.1694841e-02   4.0598488e-03
 -1.9298518e-01   3.2888995e-03
 -1.7390428e-01   4.5248512e-03
 -9.8529570e-02   1.4764891e-03
  9.5801419e-03   3.6755379e-03
 -1.2185863e-01   2.5122303e-03
  3.6254872e-02   2.6606754e-03
  7.3759876e-02   3.4843003e-03
  6.6631630e-02   2.6004075e-03
 -1.0155555e-01   3.9832905e-04
  1.7620216e-01   2.2800104e-04
  1.1146151e-01   3.5986985e-05
 -1.1818034e-02   1.7377909e-03
  8.3721794e-02   1.6734800e-03
 -7.1538888e-02   4.7383700e-03
  8.3062062e-03   2.4966407e-04
 -2.9140700e-02   6.6470751e-04
 -3.1107280e-01   2.8647255e-04
  2.1594230e-02   4.0894424e-04
  3.9270233e-02   9.6581853e-04
  6.2056050e-02   9.3665475e-04
  4.6293158e-02   7.1066484e-04
 -7.7863620e-03   6.0470536e-04
  5.2520577e-02   6.3710974e-04
 -5.0283190e-02   1.2219797e-03
 -4.3310974e-02   1.1598991e-03
 -3.7266530e-02   3.5191420e-03
  3.8294834e-03   1.9954131e-03
 -2.9829156e-01   6.8427273e-04
 -3.3071533e-01   2.7980777e-03
  7.2903141e-02   3.0874918e-04
 -4.3772954e-01   6.3133868e-04
 -3.8667414e-02   1.0009893e-03
 -2.6321979e-02   2.1948351e-03
 -1.2909938e-01   3.3827163e-03
  5.3209063e-02   2.1487020e-03
  8.6462162e-03   8.6934428e-04
 -9.3934111e-02   9.1086244e-03
 -2.8091069e-02   3.3597613e-03
 -7.3728361e-03   7.3381546e-03
  2.7382556e-01   1.2312944e-03
 -4.0214304e-02   9.0706907e-03
 -5.9870798e-02   3.6942351e-04
  4.3071903e-02   2.5253252e-03
  2.5086956e-02   5.4689730e-03
  5.0373930e-02   6.9723623e-03
 -5.1897475e-03   1.2989645e-02
 -1.4445828e-02   7.8906037e-04
  1.7851589e-03   1.3922273e-02
 -6.1662186e-02   4.6406542e-03
  4.5903999e-01   8.1599079e-04
  1.8467394e-01   7.1534299e-04
 -1.0564007e-02   2.5034400e-03
 -1.0175522e-02   6.8347547e-03
 -1.6709439e-02   8.3799390e-03
 -4.6246868e-02   1.4734491e-02
 -3.1775985e-02   1.5960088e-03
 -7.5647160e-03   5.6988015e-03
 -3.7519544e-02   1.4637276e-03
 -4.0952999e-02   2.3166663e-03
  4.5429707e-01   2.0605533e-03
 -4.0011620e-03   6.1768561e-04
  7.8946255e-02   1.7817543e-03
 -1.1591700e+00   4.9914705e-04
  5.2365410e-01   8.2351115e-05
  2.6543009e+00   7.9734059e-04
  6.3275826e-01   2.3675780e-04
  5.7393112e-03   1.9375872e-03
 -7.1997458e-01   4.9037777e-04
 -2.0853598e+00   2.1117704e-04
 -2.8752904e+00   8.0959179e-04
 -2.0648742e+00   1.0057008e-03
  1.6339171e+00   5.6113879e-04
  1.3208321e+00   4.9638416e-04
  1.5450267e+00   1.3607938e-03
 -2.1718783e+00   5.4336025e-04
  9.4261426e-01   3.5079729e-04
  6.8960367e-03   2.9726634e-03
 -6.4419888e-02   5.4224319e-04
  9.9986300e-02   1.3357830e-03
 -1.4779899e-01   2.6422543e-03
 -4.9815908e-01   8.2329127e-05
 -2.1153995e-01   8.4180487e-05
  1.6959678e-01   7.6113509e-05
 -4.8130453e-03   3.3341832e-03
 -7.4787950e-03   9.0769092e-03
 -9.1026694e-02   1.5886632e-03
 -3.9752624e-03   1.2081772e-03
  3.0261832e-01   1.8011127e-04
 -3.2975912e-02   7.6653846e-03
  1.9115807e-01   5.4775923e-04
 -5.7734811e-01   2.1110466e-03
 -2.9487636e-02   9.8583719e-04
 -9.4919642e-03   1.2182315e-03
  2.7046430e-01   1.4456308e-03
  4.0139708e-01   6.7326138e-05
  1.3701092e-01   2.8118026e-04
 -2.0589525e-02   2.9524852e-04
  3.7259804e-03   1.1851449e-03
 -3.7500959e-02   1.8392932e-03
 -2.0637032e-02   6.6250010e-04
  2.3553275e-01   2.3132782e-04
 -1.2631479e-01   4.1129719e-05
  1.1256758e-02   1.5902694e-03
  1.6617872e-02   2.0628509e-03
 -1.7351415e-02   9.9707535e-03
  2.8454069e-02   3.6164434e-03
  1.4330254e-02   5.4353550e-03
 -2.4789590e-02   5.3778603e-03
 -2.3792678e-02   4.0518329e-03
 -9.3690343e-03   3.4851404e-03
 -9.2968019e-03   2.7435678e-03
  3.2187257e-02   8.1747165e-03
 -1.6565582e-02   9.6182823e-03
  3.7754917e-01   1.2932931e-02
  8.2432004e-03   4.9993261e-03
 -4.3591324e-02   3.6058554e-03
  1.4548558e-02   4.4684932e-03
  5.5885676e-02   1.1076210e-02
 -4.9122628e-02   1.2199059e-02
  5.8541227e-02   7.1065086e-03
  1.4890878e-02   5.3303288e-03
 -6.1415769e-03   1.3426342e-02
 -3.6933378e-03   1.0906329e-02
 -7.1791776e-02   1.1639970e-03
  8.2336634e-02   6.3524302e-03
 -5.3596264e-04   2.0594357e-02
  2.6804613e-02   1.1177643e-03
 -4.2275086e-02   2.3792426e-03
 -6.1602682e-02   1.2313307e-03
 -1.0857838e-02   1.3788288e-02
 -3.8694164e-03   5.8981390e-03
 -3.2221284e-02   8.4920516e-03
 -3.3888083e-02   6.2724776e-03
 -2.3362271e-02   1.1233051e-02
 -9.3508167e-03   4.8805228e-03
  2.1696202e-02   5.7508089e-03
 -4.7298677e-02   3.6363259e-03
 -5.0336499e-02   4.4186320e-03
  4.5487151e-02   1.7324397e-03
 -1.1619633e-02   7.5008413e-03
  2.5438624e-03   1.7156549e-02
  5.6395244e-02   1.8944740e-03
  2.2769494e-02   1.4715021e-02
  5.9370760e-02   4.0943124e-03
 -4.9677705e-03   6.5021627e-03
  3.7687286e-03   5.9843552e-03
  2.8024793e-02   1.3244671e-02
 -1.9693896e-02   1.0022485e-02
  1.3480039e-01   3.9208378e-04
  2.3632625e-02   6.5389089e-03
 -6.4154272e-03   3.6532769e-03
 -3.3946645e-02   1.2272079e-02
 -1.9424571e-02   1.2037312e-02
  1.3348364e-03   6.0976287e-03
 -3.8742565e-03   7.3610875e-03
 -1.3915665e-02   4.5385291e-03
 -6.9139758e-05   1.9911500e-03
 -5.9398268e-03   3.0506151e-03
  2.5713313e-02   1.0000430e-02
  3.1298380e-03   1.1645936e-02
  1.1188730e-02   1.1725723e-02
  1.5873978e-02   8.0168126e-03
 -1.5731888e-02   7.8208912e-03
 -4.4474095e-02   4.2108917e-03
 -1.8799266e-02   1.5871478e-02
  4.1276492e-02   9.4197085e-03
  1.8283261e-02   5.1914160e-03
 -3.5377159e-03   7.6552513e-03
  3.9956355e-03   1.8400349e-02
 -7.2651453e-02   1.1256178e-02
 -1.7524777e-02   1.2284732e-02
  5.6961805e-02   1.0138070e-02
  4.5323730e-02   5.1032053e-03
  2.7706780e-02   5.1978364e-04
 -1.9125847e-02   1.2752472e-02
  3.1376954e-02   5.8904812e-03
  5.5780552e-02   4.0908316e-03
 -4.2310957e-02   3.8682534e-03
  5.3972125e-02   6.3867052e-03
 -7.8537062e-02   1.1192953e-02
 -2.8072849e-02   5.2829375e-03
 -2.8018139e-02   9.0195462e-03
  4.7366790e-02   5.8891908e-03
  1.4905153e-02   2.5298824e-03
  1.2656865e-03   1.0979340e-02
 -7.5304396e-02   3.2829182e-04
 -9.1436610e-02   4.3686456e-04
  7.3086228e-03   1.9532349e-03
 -3.6497280e-02   5.2074454e-04
 -1.5517528e-01   1.1317214e-04
  6.6876508e-02   1.0526836e-03
  1.8399282e-01   2.8703739e-03
 -2.2034035e-03   1.8625885e-03
  3.1897402e-01   1.0586962e-03
  2.6034808e-02   6.8769476e-04
  2.0850137e-01   1.8012736e-03
  2.0484922e-02   1.4962731e-03
  2.3462782e-02   2.7400602e-04
  1.9586438e-02   2.8933981e-03
 -2.3632054e-03   2.3412511e-03
 -9.5023192e-02   3.2279191e-03
 -8.8524166e-03   2.7229565e-03
 -5.8237750e-02   8.4822429e-03
 -3.7922747e-02   1.7514604e-03
 -1.3864776e-02   9.6767619e-03
 -2.5255582e-01   2.1521240e-03
 -6.3377790e-02   1.7065044e-02
 -8.9292511e-02   2.9829871e-03
 -3.8293559e-02   2.4038188e-03
 -1.0228943e-01   1.1965742e-02
  2.1861436e-02   5.0972579e-03
  1.3330710e-02   2.0170189e-03
  3.6533333e-02   2.6476746e-03
 -3.6648370e-02   5.2207382e-04
 -2.5410627e-03   1.0768616e-03
 -2.1247894e-02   3.2668244e-03
  6.2724934e-03   3.8279223e-03
 -3.1041455e-02   4.2234650e-03
  1.1302811e-03   1.0071015e-02
  9.4873764e-02   3.7424455e-03
  1.5569974e-01   1.1489816e-03
  6.2807702e-02   4.4552071e-04
  3.0985524e-04   1.9279583e-03
  1.3775140e-01   7.5995462e-04
  5.5556189e-02   1.4484981e-03
 -1.0591259e-02   1.8909575e-03
  1.0318813e+00   1.9430318e-04
 -7.2285402e-01   1.1626669e-04
  2.6376708e+00   6.8275280e-05
 -6.8295829e-02   1.4110655e-04
  3.2007250e-01   4.4470347e-05
 -6.0191309e-01   3.8760251e-04
 -2.4800788e-01   1.2642632e-03
 -7.5733161e-01   1.9371767e-03
 -2.8177911e-02   1.1647583e-04
  1.3225245e-01   2.7165088e-04
 -4.9656606e-01   2.0203656e-03
  3.0634373e-01   1.1153818e-03
  3.8951299e-01   3.2662711e-04
  6.9203854e-02   1.6458920e-04
 -4.2854514e-02   2.4143972e-03
 -1.2346588e-01   3.3417178e-04
  4.2841530e-01   1.9607954e-03
 -1.3562283e-02   4.7940188e-03
 -2.2616601e-02   2.9296236e-04
 -6.5483026e-02   1.3119589e-02
 -4.4934773e-01   2.5546383e-03
 -5.0718820e-01   1.0715028e-03
  4.8561033e-02   1.9827059e-03
  4.1434180e-02   3.7371190e-03
 -1.0759538e-01   8.8909967e-03
 -1.2226879e-01   1.1787748e-04
 -8.0101877e-02   9.7475788e-03
 -3.9162192e-02   1.0429843e-03
 -1.5676989e-01   4.3013496e-03
  4.6113306e-01   1.4083463e-03
  9.2863962e-02   8.9981192e-04
 -1.1850637e-01   4.0253964e-03
 -1.3101563e-01   2.7088732e-03
 -3.8678583e-02   2.8122286e-03
  1.0041515e+00   1.9360189e-03
 -2.6889825e-01   3.1269267e-03
 -1.0272750e-01   2.0603738e-03
 -1.0848279e-01   4.2184291e-04
 -7.9753049e-02   1.1458534e-03
 -1.6893854e-03   3.4403824e-03
  4.0032212e-02   1.1710833e-03
  7.2655708e-02   5.8053463e-04
 -5.2087002e-02   2.3778991e-03
 -3.6446096e-03   3.4463222e-03
 -1.4959534e-02   1.3891759e-03
 -5.6936353e-04   4.5610992e-03
 -1.2502432e-02   1.3228705e-03
  9.7158924e-03   1.1534544e-02
 -1.0843701e-02   5.5064671e-03
 -7.6396158e-05   6.7835869e-03
 -3.5970118e-02   1.3796890e-02
 -1.9114498e-02   9.5887175e-03
 -5.0972956e-03   3.0905709e-03
 -4.0010173e-02   1.1417881e-03
 -1.1696221e-02   7.9064518e-03
 -6.8360735e-03   7.0685851e-03
  2.3429650e-03   3.6898488e-03
  1.6757410e-02   7.2601619e-03
  3.4123912e-02   1.3365567e-02
 -1.1456958e-02   8.5458504e-03
  5.9795934e-03   2.0352151e-02
  3.1037707e-02   1.3339057e-02
  4.3483591e-03   6.1143390e-03
 -2.0345321e-02   1.0635589e-02
  2.5562290e-02   7.2917505e-03
  3.4445417e-03   8.3084730e-03
 -7.6509878e-02   4.7373711e-03
 -1.8079446e-03   8.4004663e-03
 -1.2032876e-02   8.0284616e-03
  2.3238692e-02   1.4464867e-03
  5.5062491e-02   9.4459747e-04
 -4.9592074e-02   5.4392959e-03
 -7.6747321e-02   2.9692915e-03
 -4.2123802e-02   5.5165398e-03
  1.3734122e-02   1.5182434e-02
 -3.1685572e-02   1.0035252e-02
  1.4830083e-02   1.1997136e-02
 -1.1926470e-02   7.5487690e-03
  2.1406531e-02   6.6221324e-03
  1.0618892e-02   4.9476358e-03
 -4.7311038e-02   7.0710885e-03
 -6.0251057e-02   1.6106097e-02
 -6.3669212e-02   8.4687618e-04
 -1.3266045e-01   2.3827658e-03
 -1.5926833e-01   9.7534352e-04
 -7.8937137e-01   8.0729544e-05
 -1.2084471e-01   1.2597031e-03
 -3.8443908e-02   7.7001308e-04
  2.3766041e-01   1.3598521e-03
 -3.7973621e-01   1.2804877e-03
 -1.5451944e-01   3.1635672e-04
 -1.1504503e-01   8.9028408e-04
 -4.1327474e-01   1.0376704e-03
 -2.7032197e-02   1.2866420e-03
  1.0060044e-01   1.2022672e-03
 -3.8900562e-02   2.5567212e-03
 -1.1691894e-01   2.9659099e-03
  2.7186412e-02   4.3682763e-03
  2.4045061e-02   2.8554276e-03
  2.9999182e-02   1.6482718e-02
 -4.2787638e-02   1.3105985e-03
 -3.6403842e-02   7.5249569e-03
  2.8803727e-01   6.5988244e-04
  2.2826728e-01   1.2137858e-03
 -2.9163375e-02   1.7857366e-03
 -8.5964933e-02   1.4563996e-03
  4.1654292e-01   3.4825085e-03
 -1.6167779e-02   2.1782641e-03
 -4.7079432e-03   7.3887743e-03
  2.1097714e-01   1.9108729e-03
  1.8042351e-01   7.9186046e-03
 -6.0037612e-03   2.2411593e-03
  1.6791727e-02   4.1859183e-03
  1.4739895e-01   5.3215432e-03
  1.3825219e-02   3.4809967e-03
  2.6687117e-02   1.0154952e-02
 -1.1347502e-01   5.0116720e-04
  1.8917853e-03   5.0140535e-03
 -8.6563807e-03   4.8973369e-03
  6.5623252e-03   1.3134981e-03
  1.4817068e-02   3.7222067e-04
  1.5788315e-01   4.0742536e-03
 -5.2273277e-02   2.1289052e-03
 -6.1661191e-03   4.8418306e-03
 -3.0460581e-01   8.9191459e-04
 -1.0578666e-02   2.7169781e-03
  1.0401854e-01   1.1970900e-03
  9.9743590e-02   2.9396166e-03
 -5.2909316e-03   1.1645238e-03
  1.3452817e-01   2.0998472e-03
 -5.4834969e-02   2.5533880e-03
 -4.5225481e-03   2.2920589e-03
 -2.6483914e-01   1.9014753e-04
 -4.7932072e-03   3.5603985e-03
  4.3914798e-03   2.3045521e-03
  2.2384569e-02   1.9970995e-03
  2.1569116e-02   7.6854210e-03
  1.3779155e-02   4.6636155e-03
 -6.1169244e-02   2.0492762e-04
 -1.5022685e-02   7.2395639e-03
  1.8661101e-01   2.9348042e-03
  3.2926169e-03   5.5003101e-03
 -3.8825106e-02   3.2555778e-03
  1.0792200e-02   7.4814479e-03
 -4.1125603e-02   1.1402325e-02
  1.1910480e-02   2.0341992e-02
 -6.5725617e-02   1.9837753e-03
  1.4380079e-02   1.0072051e-02
  1.6893970e-02   1.0894741e-03
  2.6641956e-02   2.1511039e-03
  4.1129675e-02   5.1133758e-03
 -1.0171737e-02   3.9287973e-03
  6.1021347e-02   2.1120117e-03
 -8.4619962e-02   7.1678977e-03
 -9.8206103e-03   5.2678038e-04
 -7.1037486e-03   4.4068962e-04
 -5.1687896e-02   1.5090206e-03
  7.5500556e-03   6.1922912e-03
  9.9054404e-02   7.4738264e-04
 -1.9376835e-01   1.0109876e-03
 -4.1280601e-02   3.4994888e-03
 -7.0145023e-03   1.1222159e-03
  1.5500458e-02   9.4458163e-03
 -9.0709612e-02   1.3489453e-03
  4.7188124e-01   3.8508361e-04
  6.7533202e-02   3.8094382e-04
  3.4252283e-01   1.3874226e-03
  2.2247535e-01   4.7595691e-04
 -1.2114299e-01   3.7323221e-04
  4.2331791e-01   5.6801015e-04
  2.9571846e-01   6.9310999e-04
  1.2460735e-02   9.0197724e-04
  5.3581977e-01   3.1486666e-04
  8.5553832e-02   2.7773276e-04
  5.2393377e-02   1.1962298e-04
 -3.7681430e-03   1.4653353e-03
  8.1392437e-01   1.0348430e-03
  1.2974557e-01   7.8185089e-03
 -1.4048010e-02   1.4287899e-03
  7.2314002e-02   1.2854954e-03
 -1.6868060e-02   8.4688421e-03
 -2.8069811e-02   6.9510755e-03
 -9.6486881e-02   7.5993437e-04
 -2.7311457e-02   6.6110599e-03
  2.8695959e-01   9.3268923e-04
 -1.6412631e-02   6.2741684e-03
  3.0648915e-02   2.6372569e-03
 -2.1002931e-03   6.0329516e-03
  2.0884976e-02   5.0362432e-03
  1.9236593e-02   2.9625408e-03
  5.6972511e-02   8.8953301e-03
 -6.5714225e-02   5.3285067e-03
 -2.0011760e-02   8.9161308e-04
 -1.5756976e-02   7.2330906e-04
 -5.1596314e-02   2.5364431e-03
  1.8407330e-02   6.0059740e-03
 -5.9110406e-03   7.3099323e-04
 -5.8489583e-02   4.7466015e-03
  1.0862198e-02   4.5789820e-03
 -9.6530497e-02   8.3307214e-03
 -2.7724545e-02   1.5882395e-04
 -1.7320499e-02   3.9114058e-03
 -6.7291595e-02   1.5380098e-03
 -1.1797316e-01   5.2286969e-03
  5.9644699e-02   4.0510315e-03
 -1.4369915e+00   2.2649071e-04
  2.6555100e-01   3.0967777e-04
 -1.6597870e-01   3.0403811e-04
 -5.9167910e-01   2.1570787e-04
  1.2453595e+00   3.9850231e-05
 -1.2024943e+00   1.0401172e-03
 -2.8535562e+00   2.2944756e-04
  2.5512150e-01   4.3793174e-05
 -3.2274461e-01   2.4052351e-04
 -1.4764928e+00   1.6861699e-05
  2.1548557e+00   1.6155695e-04
  1.2990315e+00   4.9929996e-04
  1.4340396e+00   9.6784579e-04
  2.4173944e-01   1.6660467e-03
 -4.1544709e-01   4.8418288e-04
  3.3239797e-01   5.7987723e-05
  1.4499682e-01   2.8171268e-04
  4.8306547e-02   9.0762466e-04
  5.3743136e-01   5.3652719e-04
 -1.6537391e-01   4.0148472e-04
 -6.7777716e-02   4.3053902e-04
  7.1923953e-01   4.8961304e-04
  2.4239106e-01   2.9009880e-04
 -9.8585922e-01   5.6650431e-04
  2.1731795e-01   1.4700011e-03
  6.5843886e-01   1.1782174e-03
 -6.5587394e-02   7.4171391e-04
 -1.2436082e-01   3.3968920e-03
 -9.7757316e-01   1.2546139e-03
  2.1007304e-01   6.0664513e-04
  1.6419405e+00   1.3068400e-03
  3.2369417e-01   1.1784441e-03
 -1.0696330e+00   1.3280018e-03
  1.3170090e-01   1.5670899e-04
  2.3432581e-02   1.3468714e-03
 -8.0963892e-01   5.6937512e-04
  8.2539976e-01   7.3134142e-04
  9.1407549e-01   5.7281746e-04
 -6.5546662e-01   4.7550118e-04
 -1.5003370e-03   1.5532620e-03
  1.5654033e-01   1.2828961e-04
 -7.1531259e-02   7.9894755e-03
 -2.2608204e-02   2.1955383e-03
  2.1961447e-02   1.1956176e-02
 -3.2353148e-02   7.2869379e-03
 -9.7033754e-03   1.5026764e-03
  3.0613170e-04   5.4349578e-03
 -1.5610949e-02   1.5029364e-03
 -1.7828771e+00   2.4229321e-03
 -6.0453422e-02   5.7264012e-03
  4.8982669e-02   1.2461411e-02
 -1.9895937e-02   1.0315047e-02
  2.9801061e-02   2.6258316e-03
 -3.3854164e-02   3.5403110e-03
  4.8011962e-02   5.6792111e-03
  3.4114663e-02   7.2860527e-03
 -8.8698015e-02   9.4190883e-03
  4.1212939e-02   7.0612305e-03
 -2.2847423e-02   3.2308318e-03
 -4.4589075e-03   1.0325699e-02
 -8.3410200e-03   1.1518054e-02
  5.8155894e-02   6.4522848e-03
 -1.7273499e-02   8.3448943e-03
  3.6838245e-02   8.4100058e-03
 -9.5391311e-02   1.1797534e-02
  4.9481455e-02   8.9558363e-03
  5.5048680e-03   7.7256481e-03
  8.4936284e-02   1.0603949e-02
 -6.5610632e-02   1.2054010e-02
  5.4551743e-02   1.7995564e-03
  9.9143751e-02   6.1885803e-03
 -9.4676986e-02   3.4028278e-03
 -5.2507594e-04   1.0754820e-02
 -2.7519492e-03   6.0570817e-03
 -4.5223336e-04   2.8985860e-03
  9.9461926e-03   7.0351749e-03
 -2.9769082e-02   2.3705608e-03
  4.2842120e-02   1.1826706e-02
 -2.9610174e-02   7.2772214e-03
 -6.6558174e-03   9.8629491e-03
  4.3741772e-03   9.3246317e-03
  9.9491678e-02   4.6418044e-03
  7.0398599e-01   2.8852440e-04
 -2.2813892e-01   9.2043068e-05
  5.0935072e-01   1.4379123e-04
  1.1731033e-01   2.1880509e-03
  1.3494253e-01   6.1494519e-04
 -3.8673345e-02   1.0267877e-03
 -8.1057876e-01   7.5581810e-04
 -6.9705194e-01   4.9929286e-04
  4.0288067e-01   7.1198319e-04
  2.8960615e-01   1.3761061e-05
  9.3840897e-01   6.6421850e-04
 -3.0147639e-01   1.9071819e-04
  4.4095373e-01   9.1883302e-04
  8.9502610e-02   1.0030238e-03
  4.1125170e-03   1.5122513e-03
  2.5404245e-01   2.1429008e-04
 -3.0606883e-03   1.0929483e-03
 -3.7892897e-02   8.2998481e-03
  3.5742387e-02   2.1798417e-03
 -1.4593934e-03   2.6337714e-03
 -1.1564316e+00   2.8056672e-03
 -2.4551990e-02   1.4737071e-03
 -1.6864586e-01   4.2267949e-03
 -9.7700888e-03   2.3750400e-03
 -2.2290240e-01   1.2813564e-03
  1.0270545e-01   2.3307886e-04
 -2.8113624e-02   1.1243281e-02
  1.5984301e-01   3.0911616e-03
  1.3823594e-01   2.4541791e-03
 -1.9398142e-02   2.8947296e-03
 -2.9794255e-01   6.8693986e-04
  1.6316812e-02   3.2921368e-03
  1.8330202e-01   1.6825038e-03
 -2.0998786e-01   1.2597700e-03
 -5.6232024e-02   1.4169575e-03