  3.4984151e-01   2.8602695e-05
  3.4792399e-01   1.8415868e-03
  5.3256488e-01   7.0142574e-05
 -3.9737305e-01   7.8743877e-04
 -1.9594629e-01   9.7751035e-05
  2.6915094e-01   1.1899413e-06
  4.5044225e-02   1.4625722e-05
 -6.8535560e-01   2.9767680e-05
  2.3616311e-01   1.2474415e-03
 -4.9056771e-01   1.8837802e-05
  4.2068303e-01   1.7193523e-04
 -8.0759698e-01   8.9386202e-05
  3.1762189e-01   3.5936426e-04
 -1.7823297e-01   5.1060058e-03
  1.8480865e-03   9.6516038e-04
  2.0613060e-03   4.8113181e-03
  6.3105742e-04   1.4728766e-04
 -1.0807023e-02   3.9131148e-05
 -4.1997172e-02   1.1875508e-03
  5.9503883e-02   1.1424935e-02
  8.1985347e-02   2.1548376e-04
 -1.1475845e-02   1.2323287e-03
  1.4370903e-03   3.7411266e-04
  1.9348148e-01   6.3745660e-04
 -1.5148798e-03   8.9795230e-04
  1.0802987e-02   2.8998067e-03
 -4.3620854e-03   7.6468528e-04
  1.2417978e-01   3.7807342e-05
 -9.6661374e-03   1.5993135e-03
  6.0704041e-02   7.7306163e-03
  1.6717890e-01   1.5066031e-04
  1.4753761e-02   4.5519951e-03
 -1.9690279e-02   3.5455257e-03
  1.1693828e-02   6.9661411e-03
 -1.7639894e-02   3.7468644e-04
  8.6424965e-03   2.3192330e-03
  4.5430131e-02   2.2444054e-03
 -3.4400790e-03   7.7145512e-04
  7.9933152e-02   3.2410075e-04
  2.4752455e-02   3.9112155e-04
  3.8073663e-02   2.0468910e-04
  1.5609792e-02   9.5429838e-05
 -1.3271241e-01   4.2059171e-05
 -8.0813944e-02   4.1596059e-06
 -7.6433396e-01   3.4377146e-05
  1.2463310e-01   5.9679154e-05
  2.0890243e-02   1.6255757e-04
  1.0876809e-02   9.3223316e-06
 -1.6161564e-01   5.4315096e-06
 -5.8407199e-02   3.9063772e-04
 -9.7159445e-02   3.7396883e-04
 -5.4108385e-02   5.5625405e-05
 -1.0083941e-02   6.1801370e-06
  1.6999450e-01   1.0045916e-05
 -1.0221412e-01   1.1625953e-03
  5.2042077e-03   1.2501420e-03
 -4.9184505e-02   1.9801205e-03
 -3.5253749e-03   9.0225681e-04
  3.3205684e-02   8.7240255e-03
  1.4100791e-03   3.7173114e-03
  4.4455502e-02   2.9321361e-04
  7.7860788e-02   3.3714963e-04
 -1.0910365e-02   3.2138934e-03
 -4.9008820e-03   2.7812654e-03
  1.2030105e-01   6.7641836e-04
  4.4063572e-02   9.2812459e-04
 -3.9919950e-03   2.1593482e-04
 -1.3350516e-02   3.0200728e-03
 -1.8212449e-02   7.4251124e-04
  3.4216378e-04   5.3038908e-04
 -2.9205307e-03   3.1266644e-04
  3.2053020e-02   8.2522514e-04
 -1.5109009e-02   2.3395799e-03
 -1.8062662e-02   2.1302970e-03
  2.2274280e-02   4.6734321e-03
  1.0873112e-01   3.0780950e-04
  7.4574421e-03   6.3123669e-05
  6.6010100e-03   1.6118594e-05
  6.3381180e-02   2.2000606e-04
  3.6307812e-01   1.0618405e-04
 -2.1606330e-02   1.8527050e-03
 -6.7339125e-03   5.2611961e-04
 -1.0833823e-02   8.2448489e-05
  1.9992130e-02   3.6329642e-04
 -4.3052151e-03   5.2173440e-03
  5.2759208e-02   1.3673640e-03
 -6.7033577e-03   3.7558915e-04
  7.5018564e-03   1.3145095e-03
  1.6172089e-02   7.2093803e-04
  5.2952748e-02   6.4448320e-04
  2.1194616e-02   7.3632167e-04
  2.0751148e-02   6.9277287e-03
  1.6027329e-02   5.1457039e-03
  2.6601890e-02   1.1931041e-03
 -2.6824230e-02   1.1006036e-03
 -2.1411005e-02   5.1073584e-05
 -2.5463305e-02   3.2921422e-03
 -7.6438079e-04   1.0040426e-03
  1.3656736e-02   8.6634426e-04
  3.2221138e-02   8.7505707e-04
  2.6802314e-02   1.0851470e-03
 -7.2190054e-03   2.2474527e-03
 -3.5671911e-03   1.3214515e-02
 -4.5903485e-02   2.2858100e-03
 -1.0073924e-02   2.9876543e-04
 -5.9918505e-03   4.1934242e-03
  2.7276896e-02   6.6135544e-04
 -2.6585909e-03   5.4646470e-04
  2.6981048e-02   2.2129519e-04
  1.2364303e-02   2.6370964e-03
 -4.0132124e-02   6.8289265e-03
  2.9498294e-02   1.4303899e-03
 -2.4340531e-02   5.4216286e-04
 -7.2657918e-03   3.8598988e-03
 -9.5172841e-03   1.8934121e-03
 -1.6845335e-03   2.6068680e-03
  1.1980098e-02   6.2752742e-04
 -1.0589864e-02   2.1860611e-03
 -1.7119044e-02   3.5731620e-05
  2.2352058e-02   3.7733247e-04
 -4.8667733e-02   2.9208215e-03
 -5.3435843e-03   5.2872733e-03
  4.9601188e-03   3.6371774e-03
  2.0852605e-02   2.6879306e-05
  1.1050412e-01   8.2087441e-05
  2.7937928e-01   6.1419109e-05
  5.0326936e-02   1.5608572e-04
 -1.9545938e-01   1.7517559e-05
  2.4624254e-01   3.3058775e-05
 -1.7750379e-01   1.4310467e-05
 -8.0008060e-02   7.0631802e-05
  6.5273762e-01   1.0161125e-04
  1.3140766e-01   6.7621688e-05
  3.3730653e-03   8.7297660e-05
  2.0906809e-01   4.3200285e-05
 -1.3750314e-02   3.3386790e-05
  5.4632273e-02   5.2428752e-04
 -1.1381527e-03   2.1217864e-03
 -7.9301698e-03   6.7586872e-05
 -5.3356521e-02   7.1324575e-05
  1.7874206e-03   9.4623602e-04
  7.7362214e-03   1.9817736e-03
  2.5699164e-03   4.3629680e-04
 -2.1739811e-01   3.1633885e-03
  2.7570706e-02   3.4933041e-03
 -2.0981416e-02   5.7892376e-03
 -3.0838849e-02   1.8990614e-03
 -8.8769302e-02   2.9294260e-04
 -6.0234062e-02   5.8257103e-04
  8.7913843e-03   2.9158505e-04
 -1.5601895e-02   1.8796986e-03
  4.0025958e-03   5.1706135e-03
  1.4967961e-02   9.4806449e-04
 -3.2227114e-02   1.1263519e-03
  8.0877677e-02   5.8996934e-04
  3.0734516e-03   4.1573666e-04
 -9.3888748e-04   1.3309491e-03
 -8.9306198e-03   1.8718463e-04
 -1.2302521e-02   2.8137581e-03
  1.8776763e-02   8.2804523e-05
 -3.0128011e-01   2.7699338e-04
  1.0715000e-01   1.8772665e-04
  2.3216648e-02   8.5748994e-05
  3.1313864e-03   8.8690605e-04
 -1.0567503e-01   2.3441330e-04
  9.6741039e-03   1.1223626e-03
 -1.3987630e-02   2.8677474e-04
  1.5349096e-02   6.6693511e-04
 -2.5877005e-03   7.3125158e-03
  1.1134298e-02   2.6842332e-04
 -6.5775661e-05   4.1873238e-05
 -3.8429028e-03   7.2050961e-03
 -1.1752767e-02   8.7021962e-03
  6.7378418e-03   3.5764182e-03
 -1.3776409e-03   9.0542737e-05
  2.3982711e-03   4.6181487e-04
 -3.8842333e-03   2.0540234e-04
 -9.2818327e-03   1.2802627e-03
  3.8412180e-02   5.6085251e-03
  1.6589766e-02   4.0010686e-04
  3.7722299e-03   5.6200788e-05
 -6.7240782e-03   2.5104168e-03
  1.4582794e-02   1.3344328e-02
  1.5860797e-03   4.1088476e-03
  2.3776723e-02   1.4232696e-03
 -4.6589095e-03   3.6933201e-03
  1.9112427e-02   2.5268679e-03
  5.1515559e-03   3.1498126e-03
 -3.3223084e-03   1.4648770e-03
 -1.4328836e-03   1.8625038e-03
 -1.8847467e-02   9.3159266e-04
  3.6743630e-02   2.0665443e-03
  3.8776934e-02   2.0733874e-03
 -6.9611124e-04   8.6548075e-04
  2.6796822e-02   1.7060020e-03
  2.9510828e-02   2.4900783e-03
  2.2392262e-04   6.0050760e-04
  2.2481675e-03   2.3177511e-03
 -1.8693063e-03   2.3546749e-04
 -1.9877050e-02   3.7033048e-03
  2.1361643e-03   1.3791160e-04
 -2.6997300e-03   4.4224382e-04
 -3.2657766e-04   6.3742249e-04
 -1.4853601e-02   2.0396430e-03
 -1.1034523e-02   3.1354951e-03
 -9.5306477e-03   6.8423391e-04
 -1.4385292e-01   5.5804604e-04
  3.3695690e-02   7.9156383e-04
  6.5955050e-02   2.7441615e-04
 -1.2783607e-02   2.0810710e-03
 -1.4568114e-01   2.6670763e-05
  3.0666161e-02   1.2687063e-04
 -1.7499426e-02   2.9982920e-03
  2.1646183e-02   4.6070066e-04
  4.0677926e-03   3.1238298e-03
 -6.6582422e-04   1.4015878e-04
 -1.8483812e-02   2.1122661e-03
  2.9353837e-03   5.7015177e-03
 -5.2810409e-03   7.7856361e-04
  6.2151734e-02   1.1361997e-03
 -7.1804305e-03   4.9537653e-03
 -6.7085330e-03   2.6770317e-04
 -7.2469451e-02   2.1773828e-03
 -1.5076468e-04   1.3842456e-03
 -1.3433111e-02   2.0291182e-04
  3.3666093e-02   5.4247235e-04
 -3.0039696e-03   5.6866824e-04
 -2.8002733e-02   4.5241852e-04
  1.4849709e-02   5.9355749e-04
 -7.1876450e-03   6.0900319e-03
 -1.9217139e-02   2.1887471e-03
 -1.2386304e-02   1.2448984e-03
 -1.4557073e-02   1.5001153e-03
  7.4051978e-04   2.7524077e-03
 -4.1026525e-02   6.6379167e-04
 -8.7435497e-03   4.1370839e-03
 -6.1418209e-04   6.3103985e-04
  1.1724565e-02   2.4242562e-03
  3.6544125e-03   1.6685087e-03
 -1.2992327e-03   1.9648871e-03
 -1.0659138e-02   6.1189639e-03
 -7.7769961e-03   1.9454495e-03
 -6.6104636e-04   1.1199554e-03
 -3.6027802e-03   2.1627620e-03
  1.4094458e-02   2.5578486e-03
  3.2016724e-02   9.1733353e-04
 -2.7889436e-01   3.6577007e-05
 -3.2287005e-02   3.0104356e-04
 -2.5853953e-01   2.7114499e-04
  4.6188140e-01   1.9402722e-05
 -9.9661369e-03   3.4815969e-04
  2.9890868e-01   5.1095749e-06
  3.8484833e-01   6.1614992e-05
  5.9086174e-01   6.6540306e-05
 -6.6358293e-03   9.9264283e-04
 -2.3179205e-02   1.0514309e-04
 -9.8032188e-03   8.3462818e-04
  5.5779692e-02   3.2241564e-04
  3.7223782e-02   6.9454906e-04
  3.1742133e-02   2.1532699e-04
 -3.7632078e-02   1.5262481e-03
  2.1780556e-02   2.6359211e-03
  5.5074453e-04   1.0980521e-03
 -4.6505565e-03   4.8517189e-03
 -1.8921249e-03   6.9715286e-04
  7.7633061e-03   6.7866407e-04
  1.3178706e-01   6.3298641e-05
  3.2378692e-02   4.1521751e-04
  2.0023776e-02   1.4591967e-03
 -5.4938458e-03   4.5856152e-04
  2.9106026e-03   2.4086141e-03
 -5.3234756e-02   3.2894029e-03
 -1.2246562e-03   5.1923584e-05
  4.6404433e-03   3.6365488e-03
  1.2970707e-04   6.5878604e-04
  4.6865065e-02   6.0472614e-04
 -2.8605623e-02   4.5874948e-04
  8.1124194e-03   2.0192645e-03
 -1.1490015e-03   2.4543174e-03
 -3.7925723e-03   3.5517903e-03
  1.4043528e-02   6.9049950e-04
 -3.9057314e-02   3.7516970e-03
  1.3754440e-02   1.1056969e-03
 -1.6882103e-02   7.8894387e-05
 -1.2477863e-01   4.2616818e-04
  2.4942834e-02   9.8436931e-04
 -9.9955068e-05   1.4461176e-03
 -6.7156449e-02   5.9205286e-07
 -2.0499116e-02   4.2181971e-04
  1.3534103e-03   4.2254178e-05
  3.0065358e-02   3.3244627e-04
  3.8889229e-02   7.3658470e-05
 -2.3028767e-01   5.6628825e-04
  1.1639688e-02   2.8074125e-04
  8.8398129e-02   3.9231911e-04
 -2.0656790e-01   7.5362732e-05
 -9.1326535e-02   5.0822232e-04
 -1.8653725e-01   3.1469110e-05
 -1.4173631e-03   1.1890422e-04
 -3.9059329e-01   5.4724980e-04
 -2.2274261e-02   1.3834228e-03
 -5.7828572e-02   7.8978890e-04
  1.7818488e-02   1.6450440e-03
  8.2827648e-03   1.1078117e-03
 -7.8329230e-03   2.9729942e-03
  3.1680155e-03   8.6682418e-04
  2.1847845e-03   7.4213027e-04
  5.0642821e-03   2.1789251e-03
  9.6946321e-03   2.8541593e-03
  1.3867450e-02   4.4341348e-03
  4.3399546e-02   4.2821858e-03
 -3.6485982e-04   8.4291206e-04
  9.6746028e-04   1.4691465e-03
  2.5623096e-02   2.1320332e-03
 -2.6159450e-02   2.5057003e-03
  2.2464190e-02   1.7234262e-03
 -1.4337954e-02   7.0758804e-04
  2.3606185e-02   2.3044502e-04
 -1.1198893e-02   3.4770828e-03
  1.6710293e-02   1.5422086e-03
 -2.4999559e-03   5.6376932e-03
 -7.9936618e-03   3.6658277e-04
  2.0978650e-02   5.9468122e-03
 -1.6553616e-02   7.1869779e-04
 -2.9631543e-03   1.6935039e-03
 -1.1886097e-02   6.9587299e-04
 -3.3888359e-02   1.7490546e-03
 -5.2622762e-03   1.6196958e-03
 -6.8099231e-01   2.1800420e-06
  3.6070043e-01   5.1037568e-05
 -7.9996705e-02   3.9368161e-04
  2.1341389e-01   3.7615453e-06
  1.1534116e+00   1.0446346e-05
 -6.8943417e-01   3.1642617e-06
  1.0022207e+00   6.7398055e-08
 -3.6702064e-01   1.0368049e-05
 -2.0866928e-01   1.1462388e-05
  1.3008015e+00   1.1537104e-05
  3.4368864e-01   2.6052137e-05
 -2.0304407e-01   2.5463642e-05
  2.5472537e-01   7.8602088e-06
 -4.3065363e-01   1.0802130e-04
  1.1917616e-02   2.2867576e-03
  1.7462065e-02   3.7671884e-03
 -1.0828752e-03   7.8460621e-04
  1.3144451e-01   1.8733210e-03
 -1.7306428e-01   4.8517299e-04
  6.7226641e-02   8.4035046e-04
  1.6005806e+00   4.8182090e-05
 -1.1837362e-02   3.1741862e-03
  4.5477983e-01   5.0450937e-04
 -4.9890745e-01   6.5881934e-04
  1.0623159e-02   4.2666612e-05
  5.0399234e-03   1.0955452e-04
 -2.5814265e-02   6.5272418e-03
 -2.5601679e-01   3.4004825e-05
 -4.0634307e-01   7.5539312e-04
 -4.1991255e-01   1.6450862e-03
  4.7194712e-02   6.7488058e-04
 -1.5137762e-01   1.2631861e-03
 -8.8762201e-02   1.0624293e-04
 -8.5241366e-03   8.5031945e-04
  5.2143717e-01   2.1311364e-05
 -4.4215685e-03   7.2011389e-03
 -6.4817637e-02   7.3814044e-05
 -1.2192990e-01   3.9727613e-05
 -1.1744429e-03   4.7797339e-06
 -1.9110572e-02   1.3762225e-04
 -1.1262509e-02   5.1369373e-04
  4.3059543e-01   2.9374860e-05
  1.1765448e-02   3.9232694e-04
 -4.9898240e-01   3.7220059e-05
  7.5145170e-02   2.7845884e-04
 -3.5373804e-01   6.8550976e-04
  8.4720246e-02   4.8298818e-05
 -1.4266380e+00   1.8740045e-04
 -3.3136117e-01   5.9013114e-06
  1.9893879e-01   4.4497720e-05
 -3.5092655e-01   2.9938188e-03
 -5.1429290e-01   7.9145777e-04
  1.7571744e-01   1.0476439e-04
 -1.3311830e-01   6.5434226e-03
  2.7939235e-03   2.8904129e-03
  1.5567337e-01   1.2602661e-04
  3.2204583e-02   3.0252647e-03
 -1.7332091e-03   9.0561894e-04
  6.1734673e-04   3.4151406e-03
  1.0987066e-02   4.2488980e-03
  1.0625318e-02   8.8748534e-04
 -2.3513498e-02   3.4410350e-03
 -1.0752156e-02   7.0981734e-04
  1.2981390e-02   1.7414936e-03
 -1.0554546e-02   8.5280230e-04
 -3.4818251e-03   1.0672066e-03
  9.6115004e-03   4.7900385e-04
  7.6810098e-03   7.5638252e-03
  7.8322832e-04   2.8309461e-03
  7.1432884e-03   2.0447532e-03
 -3.6451463e-02   2.5289701e-04
  2.2718223e-02   3.1739374e-04
  1.2603562e-02   5.7499716e-04
  1.7044602e-02   5.1336811e-04
 -1.1262801e-02   2.4159094e-03
 -6.4913020e-02   5.2605738e-04
 -9.0283521e-02   3.6659368e-04
 -2.1045445e-02   2.3507564e-04
 -5.8043522e-01   1.2457410e-03
  4.8642359e-03   5.6630280e-03
  5.1184283e-03   1.6041581e-03
  1.1407081e-02   2.7098572e-03
 -5.6328583e-03   1.0152739e-03
 -1.9135373e-02   1.0148978e-03
 -5.0022341e-03   5.3515458e-03
  5.0422627e-02   6.2282401e-04
  7.7885422e-03   2.2519159e-04
 -1.6129682e-02   2.5644409e-03
 -2.6670605e-02   3.8249649e-03
  3.0735808e-03   3.9416022e-04
 -1.7053669e-02   5.7675404e-04
  1.3671019e-02   1.6621763e-03
  6.7750728e-03   1.3768115e-03
 -1.9479562e-02   4.8031457e-04
  2.2304816e-02   1.4791050e-03
  1.0400819e-02   2.4893282e-03
  7.1726176e-03   2.3582880e-03
  9.5419034e-02   7.3593240e-03
  1.2294326e-02   1.0880801e-03
 -3.9831186e-03   5.8529340e-04
 -3.5280783e-03   2.4619396e-03
  5.0157581e-02   1.3418024e-04
  1.2612734e-02   3.7083046e-03
 -1.2445180e-02   2.0525388e-03
 -2.8663736e-02   8.5948495e-04
 -2.5866896e-02   6.5669633e-04
 -6.2279012e-03   7.6858257e-03
 -4.1244589e-03   1.8002627e-03
 -3.8311437e-02   5.5658305e-04
  3.3140801e-02   5.3443364e-03
 -4.4965199e-03   9.2001376e-04
 -1.8411402e-02   3.6310361e-05
  3.4663279e-02   3.9914143e-04
  1.2986079e-02   1.6581537e-03
 -2.8971530e-02   6.5180766e-03
  1.2915788e-02   7.8964187e-04
 -3.9591128e-03   3.7933427e-03
  4.0562232e-03   1.1611454e-03
 -6.1838344e-02   4.6826112e-03
  9.8692218e-04   5.7751592e-03
  1.7388986e-02   1.5046037e-03
  4.5225029e-03   4.5954697e-05
 -8.2132481e-03   5.0226774e-04
 -5.1655209e-01   7.0515543e-06
  2.9753029e-01   1.4085238e-04
  1.9842762e+00   2.3042304e-04
 -1.5990210e+00   6.4785359e-05
  4.2062920e-01   2.6426313e-05
 -8.1296080e-01   2.1821435e-05
  9.6366763e-01   5.7467449e-05
 -6.7273599e-01   7.3433566e-06
 -6.8000889e-01   1.4391015e-05
 -6.7816186e-03   2.8657394e-05
 -3.0684003e-01   1.3953484e-05
  4.0396816e-01   1.0321966e-05
 -3.0696249e-01   3.9443308e-05
  1.1882036e-01   1.7980653e-03
 -4.8556261e-02   8.6147711e-03
  9.5166387e-03   2.2801715e-03
  1.2598973e-02   2.1627906e-04
 -2.9109553e-02   3.3860330e-03
  6.2383324e-01   1.9824090e-03
 -9.8554872e-02   7.2773424e-04
 -8.4459627e-01   4.4082949e-04
  2.6414312e-02   9.3453418e-05
 -2.4866904e-01   1.2003518e-02
  1.3022114e-02   3.7588470e-04
 -3.5731938e-01   3.3073814e-04
  7.3496163e-02   2.6420449e-04
 -1.0242750e-02   8.5986359e-04
  5.3877860e-01   3.6943736e-04
  3.0293677e-02   1.8310352e-03
  3.3850169e-01   1.0794079e-03
 -9.6312171e-01   4.2832617e-04
 -4.4655412e-01   9.9367120e-05
  6.3102804e-02   8.2936876e-06
  3.4880914e-02   2.2847913e-03
 -9.9661469e-04   1.5727914e-04
  2.7551724e-02   1.4303423e-03
  9.8662730e-04   3.5244884e-04
  2.6508695e-01   1.3978164e-04
  3.7268411e-02   2.6339707e-05
 -6.5844977e-01   2.1905098e-04
 -2.6879808e-01   2.6425338e-04
 -4.9447212e-03   5.6379486e-06
  3.4283758e-03   2.1935266e-04
 -1.0879254e-01   8.5144420e-05
 -9.8591775e-02   4.3018630e-05
  1.1017758e-01   4.6241745e-05
  9.8048355e-03   5.7496709e-05
 -1.4502359e-02   5.8872938e-05
 -8.5642375e-02   1.9004785e-05
  2.3054082e-02   3.9194219e-05
  3.0662870e-01   1.5045423e-05
 -2.3561711e-03   5.7937636e-05
  1.6161922e-01   7.1548187e-05
 -9.5585519e-03   7.1146074e-05
  6.5740451e-02   1.0107523e-04
 -2.3407666e-02   9.4061317e-05
 -2.8872889e-02   8.8130208e-03
  4.9485541e-03   3.2822197e-04
 -1.9732444e-03   1.4407553e-03
  1.7343000e-02   1.1787255e-03
 -4.7875568e-04   2.8250557e-03
  7.2628371e-02   2.3441128e-03
  3.6498722e-02   1.3871358e-03
  7.6293265e-03   2.5252509e-03
 -2.1833226e-03   8.7898795e-04
 -1.0138002e-02   6.5228058e-04
 -5.8729169e-03   1.2333327e-03
  1.1721072e-02   3.5987918e-03
 -7.3396424e-03   8.0725108e-04
 -1.5046723e-02   9.4310654e-04
 -2.4061099e-02   1.7072600e-03
  2.5279906e-02   2.9164406e-03
  1.4575266e-02   2.4656826e-03
  5.7522079e-04   6.2526390e-04
 -1.2754803e-03   3.1588267e-04
  1.5310563e-02   3.9984167e-04
  3.5636774e-03   1.2788990e-03
  3.0837667e-03   2.3373932e-04
  3.4212579e-03   2.8680105e-04
  4.5924890e-03   2.4439514e-04
 -1.4720934e-02   1.7681931e-03
  1.5028621e-03   6.4386026e-04
 -1.6957073e-02   8.8265813e-05
 -5.4781963e-03   1.4415354e-04
 -2.1287698e-02   9.5972605e-04
  6.8976344e-03   5.4503977e-03
  2.2013193e-02   1.7227732e-03
  6.6596091e-02   3.3324105e-03
  2.6920114e-03   2.0836890e-03
  8.3561605e-03   1.9035063e-04
  2.5507670e-02   2.0433378e-03
  9.7225467e-04   2.7274077e-03
 -9.0364562e-03   1.5379875e-03
 -5.0431926e-02   5.1571417e-04
  5.3254515e-03   1.6180252e-03
 -3.1043109e-02   2.0732528e-03
  5.0194029e-02   3.8567467e-03
 -1.2854616e-02   2.1141740e-03
  9.7820768e-04   2.2522451e-03
  1.8466229e-02   1.0131967e-04
  1.6087994e-02   3.8790626e-03
 -1.5623625e-03   2.2927066e-03
 -9.8521868e-03   2.1603312e-03
 -7.5397443e-04   1.9329101e-03
 -9.0851113e-03   3.1359810e-03
  3.4626331e-02   8.7515982e-03
  6.2131374e-03   7.5895310e-04
  2.8657520e-02   2.7526708e-03
  5.1275906e-03   2.0748431e-04
  1.5153438e-02   1.5360204e-03
  3.0299751e-02   1.5219058e-04
  2.0873047e-02   4.3966696e-03
  6.5531442e-03   4.8863268e-03
  1.1984803e-02   1.6943457e-03
  7.3699192e-03   2.7688541e-03
 -4.2125047e-03   4.1498697e-05
  5.8360980e-03   1.5143643e-03
  2.2775570e-02   3.5192117e-03
  1.7584505e-02   2.6518953e-04
 -1.1754645e-03   1.2720324e-03
  5.8186345e-02   7.8329642e-04
  2.3711955e-02   5.2839776e-05
 -3.2491747e-02   4.9643184e-04
 -3.0623026e-02   8.3249379e-06
  1.1017959e-02   7.7879879e-05
  5.3308022e-01   2.4696330e-05
  5.9545860e-02   1.6318110e-05
  3.8524903e-03   1.3226480e-04
 -4.7700197e-02   6.6489032e-05
  9.0358466e-02   3.1384596e-05
  7.4249603e-02   4.6486319e-05
 -1.2615152e-02   1.2473660e-04
  3.6457818e-02   1.7826546e-04
 -3.8551457e-02   5.3654085e-06
  7.1730115e-02   1.1153383e-04
  6.1512142e-03   3.4962394e-04
  6.4416947e-03   4.6060402e-03
 -5.6986569e-04   9.1560592e-05
 -1.5048731e-02   1.1020189e-04
 -4.2841691e-03   3.0791108e-04
  7.3613349e-04   1.2108566e-03
  3.5450567e-02   3.5598761e-04
  7.2728068e-02   1.3749664e-05
 -6.2219854e-02   9.0593816e-04
 -3.4597546e-02   4.4450146e-04
 -2.9332504e-02   2.5675416e-03
 -3.2310290e-03   1.1455044e-03
 -1.3824455e-02   4.4329846e-04
 -1.2124698e-03   5.0896676e-03
  1.8746166e-02   1.3838720e-03
  1.0260923e-02   4.4986736e-03
  4.0638022e-02   4.7715177e-04
  4.0802579e-02   8.3581347e-04
 -1.3231462e-01   1.1921665e-03
 -1.6970094e-02   6.4518768e-04
 -4.5430027e-02   2.0292161e-03
 -2.0544745e-02   2.1265051e-03
  1.3132741e-03   4.5406440e-04
  2.6935989e-03   3.4535259e-03
  1.0475240e-02   7.0341356e-04
 -2.5594540e-02   5.4815412e-04
 -8.7117497e-03   6.3627068e-04
  3.0931737e-03   4.2452660e-04
 -1.1563853e-03   2.0705212e-03
  2.3291413e-01   5.0927483e-06
  2.3456639e-02   1.3804817e-04
 -3.4771082e-03   9.5321436e-04
  5.4250648e-03   7.5230963e-04
  8.4251342e-03   6.3258293e-04
  2.0711722e-02   4.0329917e-04
  1.3299994e-03   9.3037925e-05
  3.2040903e-01   4.2670692e-04
  4.9677346e-02   1.2298699e-03
 -3.3560836e-01   2.4525551e-04
 -1.3391593e-02   1.6839172e-04
  5.8860701e-02   2.6072207e-04
  1.0240552e-01   4.2548374e-05
 -5.3519271e-03   8.7912733e-05
 -8.4831836e-03   3.4365334e-04
  2.3134656e-02   8.4668202e-03
  2.4896476e-03   5.9573835e-04
 -2.6054882e-02   8.1885373e-04
  1.8488249e-02   1.1491160e-03
 -9.5002148e-03   6.2648188e-03
 -1.1084693e-02   7.0956498e-03
 -2.0655317e-02   1.3460109e-03
 -6.1425503e-04   1.6704181e-03
 -2.2675248e-02   4.4821477e-03
 -3.0985938e-03   2.5794816e-03
 -3.0014008e-02   3.8896098e-03
  9.4517050e-03   2.6276056e-03
  4.1903619e-02   2.0255365e-03
  5.7353724e-02   3.5615200e-03
  7.9076301e-05   3.2378617e-04
  1.0672511e-02   2.0276830e-03
 -3.5886753e-02   3.5794063e-03
  2.0275418e-02   2.9839773e-04
  2.0513842e-02   3.0207116e-04
  1.2963947e-02   7.5620972e-04
 -1.1736667e-02   3.1648513e-03
 -1.0584428e-03   7.7039667e-04
 -1.1790849e-04   4.2510827e-04
 -1.2886446e-02   1.7889355e-04
 -3.7452918e-02   2.2057449e-03
  2.1844095e-02   3.4809909e-03
  3.2543439e-01   1.4927991e-05
 -3.6703727e-01   1.6292113e-05
  1.4986137e-01   4.7360696e-05
 -4.5448801e-01   3.1120115e-04
 -3.5392817e-02   1.8118425e-04
  5.4585165e-01   1.3211185e-04
 -8.6670303e-01   1.9902960e-05
 -1.2390755e+00   1.6596714e-05
  8.4397119e-01   2.1789479e-04
 -1.7498860e-01   3.1914948e-05
  4.3486896e-01   5.5375102e-05
 -8.4335530e-01   3.1266437e-04
 -3.5071522e-01   8.3199231e-04
 -3.1277653e-02   1.3522812e-03
 -2.8232576e-02   3.4673223e-03
  2.2212015e-02   7.8721931e-03
 -7.4404821e-02   6.1206933e-04
  1.8000090e-03   1.7952385e-03
 -1.1458783e-02   7.3603280e-03
  5.1859282e-02   1.0124075e-03
  2.7309988e-02   8.8983745e-04
 -8.0919228e-03   4.6696106e-04
 -1.3179386e-02   8.3430661e-03
  4.8358366e-01   4.0818759e-06
 -3.1868596e-02   5.8669527e-03
  1.3743954e-02   6.9614095e-03
 -2.6045376e-04   3.7820166e-04
 -7.0600659e-02   2.5732917e-04
 -1.3498888e-02   3.1656940e-03
  6.5635191e-04   4.5269546e-03
  1.0827347e-02   6.6706678e-04
 -1.2613301e-01   7.4544637e-03
  3.7888286e-03   5.5258921e-03
  8.6624306e-03   1.7220973e-03
  7.7655721e-01   4.1635099e-04
 -2.0359887e-03   2.1147944e-03
  1.3348895e-01   3.0039696e-04
  2.2793175e-01   2.0097364e-03
 -3.1989017e-01   1.0823597e-04
  1.7251143e-02   3.2952223e-03
  1.1121724e-02   1.6482105e-03
  5.8983308e-03   7.6884963e-04
 -4.0916874e-04   8.6505600e-04
  6.9528952e-02   1.7378083e-03
 -1.1370204e-02   2.5834222e-03
  2.6060892e-03   4.9073794e-03
  4.2459578e-06   1.4383896e-03
 -7.1065295e-03   1.5886137e-03
  3.0988024e-03   1.4084536e-03
  1.2268484e-02   4.1336569e-04
  1.4225258e-02   1.8963224e-03
  9.7892862e-03   1.2244208e-03
 -1.0011589e-02   1.3737199e-04
  1.2605211e-01   2.1999651e-03
  4.5493517e-02   4.0649781e-03
  2.9671546e-03   4.2996374e-03
  5.9137517e-03   1.0417950e-03
  3.8152460e-02   4.1508982e-03
 -9.7862165e-04   1.4675346e-03
  1.3824224e-02   2.6520493e-03
 -2.7842373e-03   1.4749929e-04
  1.9693063e-03   3.2802709e-04
 -1.6956966e-02   5.9102406e-03
  1.4472245e-02   1.9859427e-03
 -1.2157341e-02   2.9942002e-03
 -5.3537702e-03   4.2238110e-03
  7.4592521e-03   1.5483651e-03
  6.9488696e-04   2.1110626e-04
 -4.6054874e-02   9.1248861e-04
  2.9884027e-03   1.4515657e-03
 -7.5704581e-04   4.5456672e-03
  5.2490283e-04   1.9856584e-03
 -1.3792593e-04   9.8304858e-04
  2.0851564e+00   1.6453570e-04
 -1.4877167e-02   1.9907928e-03
  3.1143868e-02   1.5641090e-03
 -7.5099301e-03   2.1603093e-03
 -3.2893997e-02   1.0140763e-04
  9.8235635e-03   4.2728027e-03
 -1.7245358e-02   1.2852765e-03
 -9.8641142e-03   6.4865412e-04
  1.1254396e-02   1.2055752e-04
  2.3585229e-01   2.7756570e-04
  2.0496918e-02   7.1351477e-03
  2.0919429e-02   1.2479733e-03
 -1.1071252e-02   1.7414305e-03
 -3.8287815e-02   5.8579288e-04
  8.5144574e-03   1.2868342e-03
  3.0485201e-01   1.9395273e-04
  1.3278945e-02   7.7955863e-03
 -6.1168266e-03   3.6209854e-04
  3.3116518e-03   4.6277541e-04
  3.1993855e-02   4.9599805e-03
  2.4383120e-02   4.9781171e-04
  4.1338112e-02   2.4382670e-03
  4.7587644e-02   4.3506373e-04
 -1.7835645e-02   6.9490024e-03
 -1.7577700e-03   7.3392194e-04
 -6.1826151e-02   3.1662083e-04
 -5.6072269e-03   2.2950659e-03
  9.8832208e-04   1.4332472e-03
  6.8923077e-03   5.7925907e-04
  5.2833059e-03   2.2693779e-03
  2.8135434e-02   5.9197092e-04
  2.1121416e-02   2.9862067e-03
 -7.3529258e-03   6.0837786e-04
  3.9715562e-03   6.0892790e-03
  4.3614432e-03   9.8211435e-04
  7.1283416e-03   6.8110495e-04
  2.2504469e-02   2.3380951e-03
  3.7542884e-03   3.4060068e-03
 -1.2158395e-02   6.7178335e-04
  3.9519563e-02   1.9524430e-04
  1.2037632e-02   4.6649796e-04
  4.6016414e-02   2.9845824e-03
 -1.4452046e-02   3.3769414e-03
  3.0310446e-02   2.5781572e-03
 -6.6128541e-03   1.5104326e-03
  1.3934647e-02   1.6687240e-04
  4.6838813e-02   6.3405500e-04
  3.4044639e-03   1.2683580e-04
  1.9558135e-02   2.5964617e-03
  4.9880128e-03   1.2781462e-03
 -2.3986796e-02   2.0212125e-05
  5.0854785e-03   1.9151792e-04
 -1.3011561e-01   2.8885665e-05
 -1.8983695e-01   2.8631568e-04
  9.7599126e-02   4.5587198e-04
  1.4024583e-01   7.3721902e-05
 -9.7140193e-02   3.3484044e-05
 -4.7954971e-01   5.9788576e-06
  7.6046869e-02   2.9932242e-04
 -7.9994008e-02   1.6653177e-04
  1.0918269e-01   2.7147140e-05
  1.1324778e-02   1.4226533e-04
  1.2651436e-02   3.6764340e-04
 -1.7950411e-01   4.9088420e-03
 -1.5547400e-02   7.6493091e-04
  2.0407134e-01   9.8633667e-05
 -2.4258264e-03   2.6687415e-04
 -1.3338367e-02   1.2389236e-03
 -1.1354196e-03   1.3943755e-03
  5.1812116e-02   2.7439534e-03
  3.3721738e-02   5.3483451e-04
 -1.3457188e-02   1.1997696e-03
 -5.6795115e-03   1.0249251e-04
  1.2956450e-02   1.2438191e-03
 -7.6496126e-03   1.4783496e-02
 -1.1365175e-03   2.5486895e-03
  4.8524472e-03   2.7880087e-04
 -2.9086925e-02   1.4484233e-03
  5.3253446e-02   7.0607784e-04
  3.2269228e-03   1.6334736e-05
  9.3324795e-02   5.8142183e-04
  2.3612252e-02   1.4227690e-03
  3.1094314e-03   7.4577844e-04
 -1.0409056e-02   3.6852758e-03
  5.0430454e-02   9.2094859e-05
 -1.1348333e-02   3.0966154e-03
 -3.0846270e-03   4.9230142e-04
  1.3684805e-02   4.7202414e-04
  1.5520121e-02   3.5639052e-04
 -5.0036799e-02   7.7632489e-04
 -6.8842326e-03   4.3802653e-03
 -2.0126452e-01   5.5792287e-05
  1.0354577e-03   3.1964860e-03
  1.1914988e-02   6.3128932e-04
 -1.7558185e-02   5.2390312e-04
 -2.8789630e-03   1.9400632e-03
  1.5852952e-02   3.4415654e-03
  1.3985176e-01   1.4934967e-05
  1.6287345e-02   2.3360006e-03
 -1.7055187e-02   3.8003756e-04
 -3.0676683e-02   7.4285205e-04
 -1.6830900e-03   6.2733068e-04
  4.8768435e-02   1.9657440e-03
  5.3494656e-03   1.5908381e-03
  3.6809634e-02   6.7085290e-04
 -1.1799943e-02   1.1444218e-03
 -2.9806339e-03   6.4937992e-04
 -9.7210044e-03   1.2032686e-03
 -4.0389843e-02   1.5203638e-03
 -1.4592010e-02   1.8764276e-04
 -2.6551411e-02   1.2272254e-04
  9.5234849e-03   5.4037333e-03
 -1.0748210e-02   1.2050533e-03
  8.9005409e-03   4.2863055e-03
  3.8878538e-02   3.0673409e-03
 -2.2374075e-02   3.2875256e-04
 -7.1396492e-03   3.6602293e-04
  7.9200165e-03   3.4021388e-03
  5.5051330e-02   7.7786469e-03
 -4.7282103e-02   7.4262416e-04
  1.1036550e-02   2.5687378e-03
 -1.6039137e-02   2.9558319e-04
  2.2812275e-02   4.9246582e-03
  3.9998800e-02   7.2322115e-03
  4.7641704e-03   4.3683036e-04
  1.7662033e-02   2.7808219e-03
  1.4591868e-03   9.1880775e-04
 -1.4089062e-02   1.4651258e-03
 -2.0730747e-03   3.7353506e-04
  3.7295092e-03   2.5440357e-04
  7.2627133e-03   4.6145600e-05
 -3.7065134e-03   1.8347107e-03
  2.3591109e-01   2.5154136e-06
 -3.8742062e-01   7.7266186e-06
  8.3538496e-01   1.7306429e-05
 -1.2108809e+00   1.9931752e-04
 -1.3795797e+00   5.4976758e-06
 -8.0663050e-03   6.0475459e-06
 -2.5588423e-01   8.5201582e-06
 -8.2602936e-01   5.8032351e-06
  8.1070513e-03   8.3192492e-05
 -3.2162613e-01   1.5888407e-05
  6.9854963e-01   3.7018093e-05
  4.8335016e-01   6.6762732e-05
 -6.4423144e-01   4.3248806e-06
 -3.9263988e-01   1.7745611e-04
 -4.1896202e-02   8.1303259e-03
 -2.6940992e-02   1.3598917e-03
 -4.2332467e-01   1.3664350e-03
 -4.2238779e-02   4.9198717e-03
 -1.4212379e-02   1.4238693e-03
 -7.2629847e-02   4.9336604e-04
 -1.3993596e-01   3.6909941e-04
  3.6047068e-03   9.4767398e-05
 -6.2175849e-03   3.3180700e-03
 -7.8486711e-01   9.4003777e-04
 -1.7088145e-02   1.2991597e-03
 -1.7153162e-03   5.5339518e-03
 -4.6028260e-02   4.4739903e-03
 -1.6958316e-01   2.8245957e-04
  6.4069610e-03   6.4291881e-04
 -3.4665417e-02   2.2096124e-03
 -5.9875453e-01   3.6468185e-04
  1.7280859e-01   1.4791529e-03
 -2.1725131e-02   1.7564549e-03
  1.5557598e-02   5.5982475e-03
  2.0570354e+00   2.7052802e-04
 -2.6417291e-02   2.2677837e-03
  9.4784938e-02   3.2218467e-04
 -5.8692479e-01   8.0957820e-05
  2.9092652e-01   2.9244213e-04
 -1.9349912e-02   2.9675252e-04
  2.6909396e-01   3.8512575e-04
 -9.5659328e-01   4.6046909e-05
  2.4377939e-01   8.9576555e-05
 -7.2585171e-01   2.6120510e-04
  1.0129576e+00   6.3232117e-04
  2.4807374e-01   1.7720889e-04
  5.6424546e-01   5.6307104e-05
  3.3080640e-01   4.0132247e-05
  6.0958385e-01   1.2251296e-05
  6.0032922e-01   8.7797082e-05
  6.4327163e-01   5.3437765e-05
 -7.1764541e-01   4.4694727e-05
 -8.3716774e-01   6.4393104e-04
  6.0140985e-01   1.7402458e-03
  1.4453386e-02   1.0863877e-03
 -1.5271026e-02   1.0858392e-03
  3.4203185e-03   6.8191998e-04
 -1.3999509e-02   1.4565641e-03
  6.5709613e-03   3.9015976e-03
  3.4694253e-03   1.8750910e-03
  1.4438827e-02   1.2263017e-03
 -1.2364638e-02   3.9224112e-03
  3.8117234e-04   3.3216865e-04
 -5.9208453e-02   1.4773163e-04
 -1.0957291e-02   1.7330931e-04
 -5.1445034e-03   8.0273423e-04
  2.6747357e-04   9.0602739e-04
 -8.6971438e-03   5.1261815e-03
 -3.9139368e-02   4.1635083e-03
 -5.1781591e-02   1.7767727e-04
  1.4187912e-02   4.2398260e-03
 -1.0626826e-01   8.1716583e-04
 -2.4637198e-02   2.6922326e-03
  1.9486368e-02   3.7714511e-03
  2.5475696e-02   8.7737909e-04
 -1.3838546e-01   5.4747309e-04