 -1.3264422e+00   1.3773604e-01
 -3.9929122e-01   7.0142299e-02
 -7.8513503e-02   7.3377743e-02
 -4.4632107e-01   7.8617722e-02
 -8.4711117e-01   9.9371538e-02
 -5.7118732e-02   9.9119730e-02
  1.1935297e-02   8.8026598e-02
 -6.8226951e-01   1.1987574e-01
 -6.4927071e-01   8.0562860e-02
 -1.0376239e+00   1.2587699e-01
 -9.2989296e-02   7.7955313e-02
 -1.4099678e+00   9.0783544e-02
 -2.6942500e-01   9.5119707e-02
  9.7007608e-01   6.6788614e-02
  4.1376811e-01   8.4180549e-02
  3.4833699e-02   1.5760250e-01
  1.3780605e-02   1.3086769e-01
 -2.0495384e+00   7.4739181e-02
  6.5318936e-01   1.6471860e-01
 -4.6151027e-02   7.8778334e-02
 -2.5671643e-01   7.9755776e-02
  3.4365547e-01   1.5867914e-01
  5.1607590e-02   1.4655356e-01
 -1.5065395e+00   1.1331691e-01
 -2.4495730e+00   1.6143276e-01
  9.6841834e-02   8.8408068e-02
  3.2653597e-01   1.1004972e-01
 -1.5018401e+00   9.8901927e-02
  1.1432142e+00   1.6376764e-01
  1.7034408e-01   8.4542572e-02
  2.6153558e-01   9.3665034e-02
 -9.7148854e-01   8.1227742e-02
 -5.6747603e-01   7.6363161e-02
 -1.3649839e-01   1.3077341e-01
 -7.6644796e-01   1.4252666e-01
  3.3632371e-01   8.7518074e-02
 -1.5144838e-01   1.0606045e-01
 -1.2990351e+00   7.7395134e-02
 -2.7655464e-01   1.0302692e-01
  5.7192081e-01   8.7290220e-02
  1.5482338e-01   9.9479489e-02
 -9.4585049e-01   9.8943986e-02
  2.3183408e-01   7.8915186e-02
 -7.7350742e-01   8.0455787e-02
 -2.4557552e-01   1.0450497e-01
 -6.0153473e-02   1.3251454e-01
 -1.8656204e+00   9.9722616e-02
 -1.2979562e+00   1.1692999e-01
  7.1221954e-01   8.1995383e-02
  5.2303630e-01   1.1757584e-01
  4.7850195e-01   8.2156681e-02
  3.7955189e-01   9.1920823e-02
  1.1344122e+00   1.3695563e-01
  3.0743575e-01   1.5699214e-01
 -4.5616066e-01   1.1135560e-01
 -9.1970563e-01   2.0155703e-01
 -4.5634022e-01   8.8009708e-02
 -1.1106704e+00   1.1309294e-01
  4.0697998e-01   9.8496690e-02
 -3.9515409e-01   9.4821677e-02
 -6.2340647e-01   9.6692398e-02
 -7.8614062e-01   1.2070374e-01
 -7.8037006e-01   1.3184205e-01
 -5.0829923e-01   1.1611719e-01
 -2.3860563e-02   1.8901770e-01
 -1.9293092e+00   1.0802210e-01
 -3.1877095e-01   1.4849377e-01
  6.5015590e-01   1.2256940e-01
  2.7663729e-01   1.1572423e-01
  5.8183450e-01   8.7240979e-02
 -4.4403097e-01   6.6448934e-02
 -6.8917751e-01   7.0576847e-02
  1.6700120e-01   1.0075155e-01
  1.8516544e-01   1.0073004e-01
 -4.5617253e-01   8.0207825e-02
  1.0610279e+00   1.2917568e-01
 -5.0896619e-02   9.0535276e-02
 -5.7166910e-01   8.3015412e-02
  2.9415187e-01   6.7791931e-02
 -5.6827348e-01   1.0006043e-01
  1.9884236e-01   8.3446674e-02
  3.6209542e-01   9.7271465e-02
 -3.9057252e-01   8.3973087e-02
 -1.3231155e+00   8.1757709e-02
  3.9201295e-01   1.3214134e-01
  1.0058908e+00   1.2814622e-01
 -5.7733343e-03   9.3468733e-02
 -1.6423875e+00   9.9471502e-02
 -2.0292239e+00   7.1599327e-02
 -1.5447319e-01   8.3454885e-02
  4.9942932e-01   1.3308212e-01
 -3.4665078e-01   9.6685909e-02
  1.2641497e-01   6.6519387e-02
 -4.8827764e-02   1.0736430e-01
 -1.4944638e-01   1.3989563e-01
  4.2263064e-01   1.1554799e-01
  1.2882054e+00   1.4113601e-01
 -3.1552726e-01   7.8445755e-02
  1.6737317e-01   8.7004744e-02
 -5.6412715e-01   1.2468094e-01
 -2.7769220e-01   6.9265500e-02
  3.0949453e-01   9.9210307e-02
 -1.3669604e-01   9.2127614e-02
  1.6927453e+00   9.4503798e-02
 -8.1393376e-02   1.0487206e-01
  4.8610613e-01   8.9661539e-02
 -6.8360394e-01   1.2367202e-01
 -5.6963813e-01   1.2588197e-01
 -2.8194979e-01   6.4630240e-02
  1.0441916e+00   7.7205777e-02
 -3.2245699e-01   8.8019483e-02
  1.1432057e-02   1.1426590e-01
 -9.8864061e-01   1.2952928e-01
 -1.5232679e+00   1.0281032e-01
 -1.7634049e-01   9.0279393e-02
 -2.8472304e-01   1.3404971e-01
  4.1381475e-01   8.7769866e-02
  4.0375024e-02   7.9031378e-02
  5.0234699e-01   4.9340475e-02
 -8.4101719e-01   1.3644052e-01
 -2.1380624e-01   1.6545150e-01
  5.5789918e-01   1.5351918e-01
  2.2462639e-01   8.6012669e-02
 -5.3566021e-01   1.7345259e-01
 -4.3780056e-01   7.4989922e-02
 -2.7136555e-01   7.8791372e-02
  1.8709564e+00   1.4476483e-01
  1.0552404e+00   1.1926676e-01
  1.8018931e-03   1.1227258e-01
 -3.3456269e-01   8.1470050e-02
  3.2069135e-01   6.9854945e-02
 -2.2897020e-01   1.0141497e-01
 -7.5196183e-01   7.4953459e-02
 -1.8757237e+00   8.7321416e-02
 -1.0183372e+00   1.3676234e-01
 -4.4332916e-01   7.6993100e-02
 -1.1966196e+00   8.0973133e-02
 -4.6053013e-01   7.9529226e-02
 -1.7074292e+00   1.3299638e-01
 -7.1487194e-01   1.1919601e-01
  9.0114522e-01   9.6739672e-02
 -1.1113217e+00   8.2167983e-02
 -4.7324669e-01   9.6608222e-02
 -1.6322399e+00   1.0318937e-01
  7.3916137e-01   8.2174532e-02
 -4.2460263e-01   1.3923773e-01
  9.0954667e-01   1.1319862e-01
  7.3499882e-01   1.0789444e-01
 -1.4032868e-01   8.2596935e-02
  2.5273564e-01   7.1401224e-02
  5.7478953e-02   1.1582450e-01
  5.1064160e-02   1.1523572e-01
 -1.2706015e+00   8.0955453e-02
  1.1640426e+00   8.9707956e-02
  1.2370289e-01   6.7702569e-02
 -7.3980314e-01   6.6427320e-02
  6.3895190e-01   7.5812571e-02
  7.2695351e-01   8.5187174e-02
  1.3263559e-01   8.6289085e-02
 -2.2787118e+00   1.3316339e-01
 -5.7924598e-01   8.2487606e-02
 -9.3645954e-01   1.1689980e-01
  4.2467821e-01   1.4601263e-01
 -1.5669714e-01   1.2005721e-01
 -8.8711166e-01   1.3718592e-01
 -2.9597607e+00   1.3103022e-01
 -5.8983475e-01   1.0366389e-01
  1.4202383e-01   9.6583426e-02
 -2.0605919e-01   8.1820510e-02
 -7.8680569e-01   2.1492559e-01
  2.7527526e-01   1.5418713e-01
 -3.5606456e-01   7.3124021e-02
 -2.8176410e-02   1.3182196e-01
 -1.3137223e+00   1.1801841e-01
  2.6806217e-01   9.0103157e-02
  4.6492201e-01   6.4362511e-02
 -6.6900581e-01   8.9309625e-02
 -4.7563928e-01   7.3774099e-02
  1.2557101e-01   1.4028381e-01
  2.0237239e-01   7.6380499e-02
 -2.7949899e-01   1.1997557e-01
  1.4233574e+00   1.2599620e-01
  5.3412265e-01   9.5485471e-02
  3.1372651e-01   6.4805761e-02
 -6.0702586e-01   1.0445701e-01
 -6.1092883e-01   1.2501530e-01
  6.4264613e-01   7.8810260e-02
 -2.9867020e-01   9.5487341e-02
  3.4696794e-01   8.3243117e-02
 -1.8786705e-01   1.0726994e-01
  3.3100659e-01   8.2659699e-02
 -5.8847725e-01   6.9857150e-02
  3.2570061e-01   8.2269885e-02
  8.3902216e-01   9.2843726e-02
 -4.8327409e-02   7.5151481e-02
 -4.4668552e-01   9.8870233e-02
 -2.5481787e-01   1.0210972e-01
 -1.5299907e-01   8.7578967e-02
 -6.1416364e-01   1.1290208e-01
  9.0666734e-02   8.0134287e-02
 -7.2203064e-01   5.5692334e-02
  8.1757092e-01   8.9463376e-02
 -5.1028419e-01   1.5131330e-01
  3.1427509e-01   1.1215387e-01
  6.4988887e-01   1.0889059e-01
  4.7787625e-02   1.0401996e-01
 -1.5444684e-01   6.4753227e-02
 -2.3337428e-01   9.1383226e-02
 -1.0571809e+00   1.1436667e-01
  5.2361721e-01   1.2147117e-01
  1.1479132e+00   1.0767246e-01
  1.1625366e+00   1.0469121e-01
  3.4534270e-01   1.5457813e-01
 -1.2796011e+00   8.7396741e-02
 -8.9327669e-01   1.4632602e-01
 -1.2421440e+00   1.4770637e-01
 -8.5158736e-02   8.2357287e-02
 -1.7687145e+00   1.1833574e-01
  1.3241844e+00   9.4085500e-02
 -1.7240947e-01   1.0290819e-01
 -5.7302314e-01   1.3885455e-01
  9.4013464e-01   1.5860893e-01
  1.7487795e+00   8.5825011e-02
 -1.6737041e-01   9.3928501e-02
 -4.8935223e-02   1.0285883e-01
  3.6710626e-01   1.5150107e-01
 -6.3250208e-01   1.0097808e-01
  4.9443415e-01   1.0634031e-01
  7.5693798e-01   6.7376763e-02
 -4.7768098e-01   5.3846836e-02
 -4.6298662e-01   1.5066184e-01
  2.2251959e-01   1.1711506e-01
 -4.6178970e-02   8.8696435e-02
 -4.8942947e-01   1.1085185e-01
 -6.5028530e-01   9.9285409e-02
  1.1897727e+00   9.7806789e-02
 -5.2456999e-01   1.5263289e-01
  3.4389988e-01   8.4199637e-02
 -1.3292052e-01   1.2983602e-01
 -1.4246433e+00   5.7705246e-02
 -1.6464181e+00   1.4919697e-01
  2.8912354e-02   9.4349928e-02
  2.0854603e-02   9.2045620e-02
  3.1416252e-02   1.5208854e-01
 -7.5048524e-01   1.1022089e-01
  7.6134509e-01   8.9870192e-02
  6.1568592e-02   4.8523381e-02
 -1.5819095e+00   1.5803836e-01
 -7.6506901e-01   1.0266209e-01
  5.4109111e-02   9.3623318e-02
  1.7862174e-01   9.0598308e-02
  1.2278786e+00   1.2346527e-01
 -8.5012758e-01   8.7541990e-02
 -1.5691376e+00   9.6207827e-02
  5.3538900e-02   9.8217398e-02
 -5.4585654e-01   5.5126198e-02
 -9.0543419e-01   6.8672039e-02
  7.1182847e-01   1.1868861e-01
 -1.1995264e+00   1.0700393e-01
 -1.0591363e+00   9.7167507e-02
 -1.0794048e-01   8.8719845e-02
  8.3129239e-01   1.2019001e-01
 -5.5227280e-01   1.3076346e-01
  2.0129278e-01   9.0361282e-02
 -4.0483701e-01   9.0460733e-02
  6.2816924e-01   1.1964084e-01
  6.7401819e-02   6.5725803e-02
 -1.6442369e+00   1.0185530e-01
  5.2516788e-01   1.3281195e-01
 -2.6785463e-01   9.1182567e-02
 -1.7322029e-01   1.1541950e-01
 -2.4891694e-01   1.0413595e-01
  1.2058845e+00   9.8523371e-02
 -1.4697389e-01   1.2033842e-01
 -3.4406918e-01   1.2240524e-01
  4.7638208e-01   8.8281140e-02
  6.2667775e-01   9.6006349e-02
  1.7332192e-01   1.3625297e-01
  2.9601800e-01   9.3753025e-02
 -6.0126507e-01   7.9580322e-02
  4.6894518e-01   1.0965328e-01
 -5.5652237e-01   1.1834935e-01
 -1.9638248e-01   7.9417832e-02
 -2.3956945e+00   1.4577152e-01
 -9.5980704e-01   8.9470416e-02
  6.1533242e-01   9.2050254e-02
 -6.2315263e-02   7.3357679e-02
 -8.5978383e-01   2.0486976e-01
 -7.7504927e-01   8.4012590e-02
  5.4481751e-01   1.1723114e-01
 -8.7428868e-01   1.4050235e-01
  6.8051189e-01   7.3870495e-02
  3.3631694e-02   8.6639494e-02
  1.2282141e+00   1.5006657e-01
 -4.9438563e-01   8.8425562e-02
  4.6085246e-02   9.3286499e-02
  4.3259627e-01   9.8360106e-02
 -2.5516686e-01   1.4849967e-01
 -2.5475168e-01   8.7438591e-02
 -1.2488903e+00   1.1943822e-01
  6.0123211e-01   9.5873289e-02
 -1.5311581e-01   9.9809967e-02
  5.2811468e-01   1.0732902e-01
  8.0815107e-01   1.0188174e-01
  5.2732146e-01   9.4520636e-02
 -2.5771868e-01   7.4019387e-02
  3.2629594e-01   9.7709455e-02
 -5.8212191e-01   7.7821866e-02
 -5.6144126e-02   1.1134808e-01
  3.3434823e-01   8.7109916e-02
 -1.3237436e-01   9.8369926e-02
 -1.0143870e+00   1.1958674e-01
 -3.7569016e-02   6.4228378e-02
  6.2862295e-01   7.1738675e-02
  1.5728244e-01   8.6463958e-02
 -3.3067903e-01   8.8940367e-02
  6.6713160e-01   1.1009772e-01
  1.1558344e+00   5.6369599e-02
  2.9413626e-01   7.5004876e-02
  2.5098649e-01   1.3213743e-01
 -8.5357741e-02   8.5986130e-02
  4.9806565e-01   1.2914912e-01
 -7.1529907e-01   7.5711258e-02
  7.1075648e-01   9.5241718e-02
 -6.2315190e-01   1.2968007e-01
 -1.4060701e-01   8.9641377e-02
 -1.0780048e+00   7.3931061e-02
 -2.5331163e+00   9.1017231e-02
 -2.5112087e-01   9.6069731e-02
 -1.7084528e+00   9.9108420e-02
  1.1766124e+00   1.2622228e-01
  8.9676058e-01   9.2636459e-02
 -8.4243923e-01   1.1798638e-01
 -4.6881694e-01   8.7313220e-02
  1.2989408e-01   1.4924759e-01
 -6.7337292e-01   1.0680582e-01
 -5.6588497e-02   9.4825894e-02
 -9.1968983e-01   9.0425663e-02
 -1.0018850e-01   1.2756234e-01
 -4.1642901e-02   8.4168531e-02
 -4.3037656e-01   1.0100988e-01
 -2.6206627e-01   1.3822587e-01
 -1.3943264e+00   1.2762159e-01
 -1.0971054e-01   7.5047068e-02
 -2.5764806e+00   1.7265446e-01
 -9.6588135e-02   8.0942877e-02
 -3.0371064e-01   1.3381855e-01
  8.4260052e-01   1.0953115e-01
  1.6365649e+00   1.3884218e-01
  8.4009141e-01   1.3891134e-01
 -1.9369826e-01   7.5652190e-02
  5.5441105e-01   9.7703896e-02
 -3.0810699e-01   7.0718862e-02
 -1.1824880e+00   8.4437452e-02
 -5.8082455e-01   8.3811723e-02
  3.6740053e-01   1.3116910e-01
  1.5726124e+00   7.6190047e-02
 -8.3268201e-01   1.0156454e-01
  3.0298373e-01   8.9164905e-02
 -1.1907266e+00   1.4005058e-01
  1.2491955e-01   1.0471819e-01
 -1.5827565e+00   1.3189223e-01
  9.1003358e-02   1.2106235e-01
 -7.3064941e-01   9.4407268e-02
 -2.9365111e-02   1.1541124e-01
 -4.1752934e-01   9.4770774e-02
  3.6861338e-02   1.0532480e-01
 -8.5510081e-01   1.0715429e-01
 -1.5104216e+00   1.0640290e-01
  7.3161793e-01   8.1502758e-02
 -1.0390154e+00   1.0270846e-01
  3.3405706e-01   1.2627064e-01
  5.1980090e-01   7.3884547e-02
  9.6292776e-01   1.9608110e-01
  1.4374481e+00   2.2484407e-01
 -5.6061530e-01   1.0300668e-01
  1.5581253e+00   7.7061571e-02
 -5.7009637e-01   9.0144061e-02
 -1.0780042e+00   1.3253404e-01
  4.8266232e-01   9.8513357e-02
  7.2412479e-01   7.1668707e-02
 -1.9058905e+00   8.1489526e-02
 -3.1259134e-02   1.1076146e-01
 -1.3064486e+00   1.0727993e-01
  2.0088041e-01   1.1349618e-01
 -4.1478440e-02   1.3588916e-01
  7.4895203e-01   1.1182106e-01
  2.0922624e-01   7.5843833e-02
 -7.0260036e-01   1.5843768e-01
 -9.8012882e-01   1.1968169e-01
  7.0272744e-01   1.0547063e-01
  2.9946223e-01   9.8537818e-02
 -9.5195025e-01   6.2938295e-02
 -5.1735210e-01   8.7214969e-02
 -3.6659437e-01   9.3502834e-02
 -8.2539564e-01   1.3416196e-01
 -4.9914053e-01   1.1764213e-01
  1.2385163e-01   1.2081496e-01
  3.5848448e-01   1.0379470e-01
 -1.4738247e-01   1.2696809e-01
  7.1124768e-01   1.0554606e-01
  6.7574590e-01   1.0498253e-01
  5.4829431e-01   1.0706712e-01
  1.3237158e-02   8.7295577e-02
  2.3203073e-01   1.3821420e-01
 -1.6336386e-01   7.7233180e-02
  4.8774129e-01   7.0801280e-02
  1.7015396e-01   8.5710883e-02
  3.2908705e-01   1.4880337e-01
  7.3134643e-01   1.0317436e-01
  1.0661249e+00   1.6116896e-01
  6.0292614e-01   9.8676898e-02
 -1.1289291e-01   1.3583128e-01
 -6.1623704e-01   1.0001028e-01
  2.5413787e-01   9.8522723e-02
 -2.3607630e-01   1.1311561e-01
  3.2032660e-01   6.4105697e-02
  4.7879543e-02   7.8268051e-02
  2.9445308e-01   1.0043507e-01
 -8.5688961e-01   8.8442303e-02
 -1.5545496e+00   9.6201077e-02
 -6.0244463e-02   9.3094550e-02
 -5.0185966e-01   1.4218843e-01
  6.1550122e-01   1.4465506e-01
  2.1443219e-01   1.1150279e-01
 -1.2866041e-01   8.2584321e-02
  8.9410567e-01   7.6655120e-02
 -1.9090208e-01   7.9514548e-02
 -1.6997670e-01   1.0143527e-01
 -1.5015708e+00   9.8971523e-02
  5.5871481e-01   6.9581032e-02
 -4.6640131e-01   6.6012539e-02
  5.3142691e-01   9.5463023e-02
 -2.4823904e-01   9.8521329e-02
  9.9995911e-01   7.7274084e-02
  4.5836534e-02   1.0538533e-01
  7.3166049e-01   9.2342548e-02
 -6.8750650e-02   1.1378006e-01
  6.8908393e-02   1.0872258e-01
 -3.2982787e-01   9.8377101e-02
  2.3401891e-01   1.0804625e-01
 -2.0311322e+00   1.2408025e-01
 -8.9700359e-01   1.0209742e-01
 -1.1544875e-01   7.9487033e-02
 -6.0010489e-02   8.1164718e-02
 -1.0956507e+00   1.2016796e-01
  8.8526595e-01   6.8597689e-02
  1.5615791e-01   8.1057973e-02
 -9.0225589e-01   6.4282812e-02
  5.2681190e-01   6.3281648e-02
 -6.2120038e-01   5.8304749e-02
 -5.8316422e-01   1.0955241e-01
  1.1460432e-01   8.4982224e-02
 -6.6327381e-01   9.9634066e-02
 -1.0314792e+00   9.0863355e-02
 -1.2021663e+00   9.8409951e-02
 -1.2238721e+00   7.4766032e-02
  1.0426535e-01   1.1279039e-01
 -4.4410642e-02   1.0031650e-01
  2.3716040e-01   1.1675343e-01
  7.0150715e-01   1.1970285e-01
 -2.2628962e-01   1.1510036e-01
  5.8822608e-01   1.1755563e-01
  1.3116089e-01   1.1697523e-01
  3.2340881e-01   1.0061922e-01
 -1.3668707e-01   1.0668592e-01
 -3.5877626e-02   8.6609408e-02
 -8.8916677e-01   9.3144536e-02
  1.3365468e-01   1.0129531e-01
 -8.0928254e-01   8.9001283e-02
  6.7400146e-01   1.0639293e-01
 -5.4424834e-01   9.9518999e-02
  2.9176775e-01   8.6331524e-02
 -2.1563748e-01   6.8238549e-02
 -1.0339548e-01   1.1658348e-01
 -4.8210207e-01   1.2661295e-01
  2.8998265e-01   8.6661629e-02
  3.0524415e-01   6.7837223e-02
 -4.8651122e-02   1.3277489e-01
  9.3150532e-01   6.5969884e-02
 -3.5168388e-01   8.9097001e-02
  5.1479673e-01   8.1983835e-02
 -8.6873162e-01   1.2288555e-01
 -4.8203051e-01   8.6170129e-02
  9.4433582e-01   1.6023113e-01
  1.3951931e+00   8.3832026e-02
 -6.8106689e-02   9.3798675e-02
 -2.9949784e-01   1.1011199e-01
  3.1553328e-02   7.5066529e-02
  2.3491429e-01   1.0158435e-01
  4.7406819e-01   1.1241681e-01
 -4.6299657e-01   1.1879903e-01
  4.7352624e-01   1.2357623e-01
  5.0737476e-01   9.1588072e-02
  9.9108964e-02   1.6645105e-01
  7.2078139e-01   1.0175005e-01
  2.8633326e-01   5.8297794e-02
  1.9960530e+00   1.6344368e-01
 -5.0069082e-01   1.3108876e-01
  9.6445113e-02   1.3517958e-01
 -4.9515897e-01   8.9923024e-02
  4.4068530e-01   1.2013815e-01
  1.3352147e-01   7.4488409e-02
  1.9793062e-01   1.3404560e-01
  1.0189883e+00   9.4510794e-02
  1.5438715e+00   9.8099627e-02
  2.6622549e-01   9.5580012e-02
  2.7100512e-01   6.6429406e-02
  1.0141319e+00   1.1201029e-01
  4.1893255e-02   1.2509480e-01
  9.8079994e-02   8.4439583e-02
  1.4600651e+00   1.0929898e-01
  3.6655939e-01   1.1359473e-01
 -1.7131929e-01   1.1658204e-01
 -8.3562905e-01   1.0165728e-01
  2.0243070e+00   8.3456106e-02
  2.1913841e-01   1.0554159e-01
 -3.2520643e-01   1.1884078e-01
 -3.3385846e-01   9.7313784e-02
 -1.8137282e-01   9.9995464e-02
 -6.8565720e-01   1.6571146e-01
 -1.5864995e+00   9.1664299e-02
  6.9528174e-01   8.5011229e-02
 -8.3809358e-01   8.9677460e-02
  2.0372131e-01   1.0744755e-01
  5.7045144e-01   8.8209435e-02
  2.5076675e-01   9.8513067e-02
 -1.7247796e-01   8.3794810e-02
  8.7293309e-01   1.1289153e-01
 -2.0234665e-01   8.9363530e-02
  2.7251273e-02   9.0585776e-02
 -5.3749710e-01   9.1738507e-02
 -7.3788023e-01   1.3312957e-01
  7.9038538e-02   6.5725572e-02
 -7.9573244e-02   1.1875877e-01
 -9.1445476e-01   9.5824979e-02
 -2.0883605e-01   9.6764818e-02
  4.5033902e-01   1.5440392e-01
 -1.9402626e-01   1.0817499e-01
  3.4261397e-01   7.9849958e-02
 -3.7762791e-01   7.5867824e-02
 -6.1074525e-01   7.9259448e-02
  1.7766736e-01   1.1891168e-01
 -6.5387893e-01   1.5181217e-01
  7.9997468e-01   9.0690993e-02
 -2.0646754e-01   1.2252483e-01
 -1.2609600e+00   9.3492717e-02
 -8.4315604e-01   1.6179466e-01
  3.9483404e-01   7.0499636e-02
  2.9844460e-01   7.7143386e-02
 -2.6494291e-01   7.7822991e-02
  9.1685951e-02   6.9286712e-02
  6.0713476e-01   7.4933417e-02
  2.3635468e-01   1.0421471e-01
 -1.3767797e-01   9.5065705e-02
 -9.9406242e-01   1.4394012e-01
 -4.1941071e-01   9.4126269e-02
  5.4571263e-02   1.0100219e-01
  6.4119202e-01   1.2452555e-01
 -7.6409179e-01   9.4023921e-02
  1.3157651e+00   6.3700482e-02
  1.2530149e+00   1.0627544e-01
  1.2227559e+00   1.1898662e-01
 -1.7802800e-01   8.1505969e-02
 -6.2391639e-01   7.7377528e-02
  1.0800091e+00   8.7512352e-02
 -5.1496786e-01   1.1608816e-01
 -4.1239092e-01   7.8411162e-02
 -1.4089551e+00   1.3853370e-01
  2.3208196e-01   1.0870929e-01
  2.2457846e-02   1.0210168e-01
 -4.9208716e-01   1.1154389e-01
 -2.0336702e+00   9.8541200e-02
  9.3811274e-02   1.7312445e-01
 -6.6005343e-01   8.2208611e-02
 -3.7930858e-01   9.6196204e-02
 -7.7651566e-01   1.0131640e-01
  1.1986082e+00   1.0492747e-01
  2.3168392e-01   7.4666731e-02
 -1.3995911e-01   1.2479327e-01
 -6.2274921e-01   1.3858332e-01
 -2.7061519e-01   1.2337626e-01
 -1.6136999e-01   1.1787080e-01
 -5.1731849e-01   8.9761056e-02
  1.1339245e+00   1.1182335e-01
  7.3675519e-01   1.2024129e-01
  8.1758720e-01   1.1958789e-01
  2.0602193e+00   1.3885084e-01
 -8.1471521e-01   8.8303581e-02
 -9.7586602e-01   1.0908538e-01
 -2.7637061e-01   8.2084768e-02
  5.5147308e-01   9.7995244e-02
 -3.2762277e-01   8.2886547e-02
  1.0074698e+00   1.6550070e-01
 -8.1678766e-01   9.6202247e-02
  3.4858006e-01   1.1506324e-01
  9.2112839e-02   8.9487016e-02
  5.7881629e-01   8.9684218e-02
 -1.4940740e+00   9.6437357e-02
 -1.0081356e+00   8.2882695e-02
  1.2872292e+00   1.0194562e-01
 -6.9864500e-01   5.9165921e-02
 -8.8209981e-01   1.1177363e-01
  1.6109725e+00   8.5216068e-02
  8.3734818e-02   1.3422145e-01
 -2.1767497e-01   1.0156546e-01
  5.4221362e-01   9.3694970e-02
  9.1556913e-01   1.5420517e-01
 -1.1217539e+00   1.2315623e-01
 -2.0583288e-01   9.4751351e-02
  9.6809751e-01   1.3288745e-01
 -1.1080377e+00   1.4876750e-01
  7.8131277e-03   1.4836366e-01
  9.7552192e-01   1.4869493e-01
 -1.4665340e+00   1.3582915e-01
 -9.1998649e-01   1.0493157e-01
 -1.2407096e-01   4.5530193e-02
  1.3011384e-01   8.7430015e-02
 -1.5147433e-02   1.1086430e-01
 -1.0624636e-02   6.3057683e-02
 -4.0126237e-01   6.6322997e-02
 -8.1121629e-01   9.8399885e-02
 -4.7601026e-01   8.7889634e-02
 -1.9825174e-01   1.4458306e-01
  6.7904097e-01   8.1108294e-02
  1.9278160e-01   1.3251984e-01
 -6.9822067e-01   1.8766767e-01
 -6.7773050e-01   1.3146904e-01
  9.8987460e-02   1.0583431e-01
 -7.3728245e-01   9.0393595e-02
 -3.8231570e-01   5.6423604e-02
  1.3370976e+00   1.4278555e-01
  3.4496295e-01   1.2705109e-01
 -2.0975346e-02   9.6818626e-02
  2.3810576e-01   1.1255608e-01
 -1.9765460e-01   1.0402484e-01
 -9.4736330e-02   7.5104177e-02
 -6.7709613e-01   8.5754313e-02
  1.1624716e-01   1.0886175e-01
 -8.7850577e-01   1.2827794e-01
  6.9504696e-01   7.8040615e-02
  1.7919302e-01   1.4614899e-01
 -1.4941914e+00   1.7736185e-01
  9.7505130e-02   7.5644352e-02
  1.8778464e+00   1.3873371e-01
 -1.5676264e+00   1.1758687e-01
 -1.0892440e+00   8.6295940e-02
 -1.6592279e-01   1.0137577e-01
 -1.2465074e+00   9.7327270e-02
 -3.5004213e-01   1.7326757e-01
 -6.0759377e-01   8.1741661e-02
 -3.0822656e-01   1.4457363e-01
 -5.2024359e-01   1.0289434e-01
 -4.9099272e-01   7.1477197e-02
 -6.0190849e-02   9.1339558e-02
 -7.8693807e-01   1.6435060e-01
  3.0685258e-01   1.1101631e-01
  9.0820715e-03   8.7996751e-02
  6.4982152e-01   6.1963916e-02
 -8.7242693e-01   1.0273589e-01
  2.7413657e-01   1.2802337e-01
 -1.1239652e-01   1.1241218e-01
 -1.6975757e-01   1.0556730e-01
 -1.7828035e+00   7.4965671e-02
  1.7057073e+00   7.7371225e-02
 -5.5593145e-01   7.1900353e-02
  4.0251157e-01   8.0334388e-02
  5.9306920e-01   6.9335915e-02
  8.9403737e-01   9.0197541e-02
 -1.3715491e-01   1.2511623e-01
  9.1748089e-02   9.7331539e-02
 -2.5842211e-01   1.1744858e-01
 -2.1377121e-01   8.1783757e-02
 -5.7601456e-02   8.4182911e-02
  1.2870571e-03   7.1714565e-02
  4.8773300e-02   1.0456870e-01
  7.7224451e-01   8.5831307e-02
  1.5629133e+00   8.4720485e-02
 -2.9207921e-01   9.0190887e-02
  1.1483916e-01   6.8409137e-02
 -7.6126289e-01   6.4681418e-02
 -4.7960722e-01   7.7093773e-02
 -3.1403005e-01   7.5996600e-02
 -9.0920877e-01   1.2581003e-01
 -3.2249510e-01   1.0020830e-01
 -6.7333859e-01   9.3825594e-02
  9.6298862e-01   6.4303041e-02
  3.0599053e+00   1.2761422e-01
  2.4678956e-01   1.0908600e-01
 -1.0311090e+00   1.2727351e-01
  6.3546592e-01   1.0771398e-01
 -9.6611679e-01   6.3610151e-02
  3.1109625e-01   9.2756376e-02
 -8.4385526e-01   1.1447281e-01
  6.2751949e-01   8.9057304e-02
 -3.0402935e-01   1.0223241e-01
 -1.0133168e+00   9.3934134e-02
  8.0644399e-01   8.7485991e-02
  8.8719726e-01   9.1729477e-02
 -1.2547978e+00   1.4080919e-01
  1.1046414e+00   9.4096608e-02
  1.7047657e-01   7.5441144e-02
 -3.2132903e-01   7.9883583e-02
 -1.4186266e-01   7.2583877e-02
  1.2075001e+00   1.0746393e-01
  5.4284656e-01   1.0702027e-01
  8.3795279e-01   9.8108351e-02
  1.5926088e+00   6.9026738e-02
 -3.5147420e-01   1.1527825e-01
 -2.4864580e-02   1.5545453e-01
 -8.3781317e-02   8.5656241e-02
  2.6063508e-01   1.1556982e-01
  2.8680715e-01   1.0317593e-01
 -2.6255652e-01   9.0319283e-02
 -3.5552388e-01   9.5104553e-02
  4.9741393e-01   9.2473537e-02
  4.4659579e-01   1.3405490e-01
  6.1262506e-01   8.8976726e-02
  5.0461286e-01   1.0410629e-01
  3.4817183e-01   9.5203914e-02
 -1.7513502e+00   8.4402449e-02
 -3.0438960e-01   7.6945208e-02
  7.7347890e-02   9.4045348e-02
  2.3830427e-01   7.8908868e-02
 -7.3218960e-01   8.5268080e-02
  9.5620430e-01   8.9274622e-02
  1.7301059e-01   1.3754034e-01
 -4.2685652e-01   1.8607526e-01
  2.2820991e-01   9.4713561e-02
 -2.0677403e-01   9.1482058e-02
  1.4252180e-01   1.0554726e-01
  4.8326576e-01   1.1137061e-01
 -4.7922289e-01   1.4234293e-01
  5.7553011e-01   9.4088875e-02
  8.8281262e-01   7.8992903e-02
  2.1821612e-01   5.7498649e-02
  4.0889049e-01   1.0996804e-01
 -3.2520879e-02   6.9038913e-02
 -9.6716994e-01   1.1833259e-01
 -7.9910266e-01   1.1854594e-01
 -1.9963191e+00   7.2575301e-02
  5.6731153e-01   9.2551559e-02
  7.6508844e-01   1.1843202e-01
  1.7632058e-01   8.5616216e-02
  4.8798245e-01   1.0272395e-01
 -9.9722874e-01   6.6555336e-02
  5.9358257e-01   6.7980394e-02
 -6.2759918e-01   8.1089839e-02
  3.0280957e-01   9.1347970e-02
  1.1106064e+00   1.0671762e-01
 -1.6731247e-01   9.2226021e-02
  3.4406358e-01   1.6844322e-01
  5.6493795e-01   6.0016584e-02
  9.5671582e-01   8.1946693e-02
  1.8166323e-01   1.2054625e-01
  4.3985687e-02   8.8711239e-02
 -1.3371408e-01   8.1179433e-02
  1.0404352e+00   6.3961722e-02
 -1.1222317e+00   7.9815269e-02
  7.9484665e-01   1.1712328e-01
  1.1598029e+00   1.1036990e-01
 -6.9849563e-01   9.0046361e-02
  1.8456649e+00   8.4634162e-02
  1.7835749e+00   8.9959554e-02
 -1.0500511e+00   7.6845296e-02
 -2.9248440e-01   9.0496160e-02
 -8.5658664e-01   1.2738894e-01
 -1.8012425e-01   1.1310251e-01
  1.6638476e-01   7.9080351e-02
 -1.2762181e-01   9.8306760e-02
 -4.0261117e-01   7.5022876e-02
  1.5852103e-01   1.0156323e-01
  9.4473612e-01   1.2470181e-01
  4.9579632e-01   6.8297133e-02
 -9.1275221e-01   1.1983684e-01
 -6.7829555e-01   1.6077201e-01
 -2.4803667e-01   8.8206701e-02
  1.0271137e+00   1.3114908e-01
  4.6366456e-01   1.4845951e-01
 -3.4003732e-01   8.4542677e-02
  5.2374804e-01   9.6394256e-02
  6.6931111e-01   8.0274381e-02
  1.9909352e-01   6.0734902e-02
  3.5689408e-01   6.4432777e-02
  5.5853599e-01   8.1341803e-02
 -3.8522542e-01   7.0606440e-02
  1.2334116e+00   9.2113622e-02
  8.7847149e-01   1.2184072e-01
  1.6556305e+00   9.1884047e-02
  7.3529400e-02   7.2776996e-02
 -7.4376784e-02   9.1477990e-02
 -2.2118962e-01   1.0463182e-01
  1.8644558e+00   8.0426961e-02
 -1.7289248e+00   1.2719971e-01
 -1.2335745e+00   8.0653608e-02
  8.1746501e-01   9.2772022e-02
  1.0974085e+00   1.1283097e-01
 -4.8881639e-03   9.7318135e-02
 -4.6784067e-01   8.8917673e-02
 -4.6974671e-01   9.4037794e-02
 -2.8952244e-01   1.0470407e-01
  5.7077992e-01   1.4415383e-01
  7.7352303e-01   1.0155765e-01
  6.9831088e-02   7.9268612e-02
 -1.0299913e+00   1.3054831e-01
 -1.3935694e+00   8.2696639e-02
 -2.7056918e-01   7.2888747e-02
 -8.3609635e-01   1.1926627e-01
  1.8724487e+00   1.3304059e-01
  1.5253532e-01   1.0965791e-01
 -1.6688694e+00   1.2186948e-01
  4.0819693e-01   6.6349640e-02
  4.9318659e-01   7.7238150e-02
 -4.9766344e-01   1.0526706e-01
  2.3155928e-01   6.6826753e-02
  8.6446047e-01   1.1557762e-01
  5.0148594e-01   1.3803323e-01
  3.5534355e-01   8.9874618e-02
 -5.2132058e-01   1.0209536e-01
  1.1787010e+00   1.0327703e-01
 -2.2796965e-01   7.5844981e-02
  1.8751262e+00   9.7373441e-02
 -2.3556373e-01   9.1701292e-02
  1.2595643e-01   9.9879406e-02
  6.3974410e-01   1.3183248e-01
 -5.5376726e-01   8.6025320e-02
 -1.9018891e-01   6.8112075e-02
 -9.3939066e-01   9.0160847e-02
  1.8519825e-01   9.2066042e-02
  7.8117865e-01   8.0623314e-02
 -3.1207523e-01   1.4121895e-01
 -5.5668622e-01   1.4358674e-01
  2.5614834e-01   7.9290800e-02
  1.1177318e-01   1.8240394e-01
  3.8774248e-02   1.4928128e-01
  1.5694954e-01   7.9174839e-02
  6.2258375e-01   6.7501038e-02
  8.1338626e-01   8.8537961e-02
  1.2061855e+00   8.0009982e-02
 -4.6974592e-02   1.0227028e-01
  6.5079755e-01   2.2978985e-01
  3.4318253e-01   1.3381742e-01
  6.4519721e-01   1.1025183e-01
  7.6418072e-01   8.5246623e-02
  1.1624835e-01   9.0971738e-02
 -1.8740979e-01   7.2169967e-02
  1.4613527e+00   9.4293177e-02
 -5.8304924e-01   9.2637703e-02
 -7.0262194e-01   7.9535224e-02
 -4.1280583e-01   8.5227907e-02
 -2.2303575e-01   8.1098452e-02
  1.9447778e+00   8.9964814e-02
  2.4038085e-01   1.3662325e-01
 -4.8702514e-01   1.0237747e-01
 -2.5464627e-01   6.5229155e-02
 -4.6485597e-01   9.8754562e-02
  1.0763139e-01   1.1717208e-01
  4.4804484e-01   1.1008133e-01
  9.3857980e-01   1.1922161e-01
 -4.8516907e-02   1.6955458e-01
 -6.7082840e-01   7.8718640e-02
 -5.3014439e-01   1.1202044e-01
 -2.1962979e-01   9.7260147e-02
  5.5468482e-01   1.1194842e-01
 -6.0813177e-01   1.0131349e-01
  6.1040008e-01   1.1419236e-01
  1.7298205e+00   1.1807372e-01
  1.3624808e-01   9.1428712e-02
  6.8158567e-01   9.3034729e-02
  1.4249154e+00   1.0054171e-01
 -2.8578205e-02   8.1255719e-02
  1.3510907e+00   1.3894388e-01
  3.5063365e-01   8.8632770e-02
 -9.9783733e-02   8.6113252e-02
 -4.5517227e-01   8.7292269e-02
  1.2358825e-01   1.1427571e-01
  4.5030490e-02   1.0034946e-01
  7.3684329e-01   1.1624879e-01
 -1.0283064e+00   7.6657660e-02
  7.2447753e-01   1.2777911e-01
  6.4342815e-01   9.8885655e-02
  9.0940470e-01   7.6214537e-02
  1.0538841e+00   6.3884430e-02
 -1.0396683e+00   1.0274851e-01
  1.2431640e-01   1.0323380e-01
 -7.9669702e-01   7.8332081e-02
  4.0119353e-01   8.4127061e-02
 -3.2045370e-01   1.1603723e-01
  6.3748354e-01   7.0418581e-02
 -5.8630347e-01   8.6510703e-02
  2.3783065e-02   1.0909820e-01
 -7.1113026e-01   1.5056296e-01
 -2.0793039e-01   1.0336520e-01
 -8.1480765e-01   7.1478605e-02
 -1.8408551e+00   1.0005550e-01
  4.0664047e-01   9.4423540e-02
 -6.1219394e-01   1.4750844e-01
 -8.0304432e-01   1.2242062e-01
 -6.4833593e-01   8.4131218e-02
 -3.6510554e-01   1.0802970e-01
  1.0005040e+00   7.5971536e-02
  5.0744784e-01   1.0239309e-01
  1.7396398e-01   9.4739556e-02
 -1.1925789e-01   7.8993790e-02
  3.2764378e-01   9.4811849e-02
 -4.7208524e-01   8.1688300e-02
  1.3226882e-01   1.0729725e-01
  8.4131622e-01   1.5064587e-01
  1.1770824e-01   9.2261419e-02
  7.7145958e-01   1.3099006e-01
 -1.6455016e-01   1.2079056e-01
  1.4198080e+00   9.8557815e-02
 -6.4998573e-01   9.2430286e-02
 -3.1362444e-01   1.1968918e-01
  8.6422330e-01   1.1395154e-01
 -1.5691990e-01   8.7510101e-02
  1.0106558e+00   1.6431253e-01
 -4.5616865e-01   8.6091630e-02
 -3.3226222e-01   1.1066651e-01
 -8.9912254e-01   8.9973047e-02
 -2.0853512e-01   9.1224119e-02
  1.4923911e+00   9.7585641e-02
  2.1362837e-01   5.8010228e-02
 -6.4848888e-01   1.1943739e-01
  6.1026716e-01   1.0036785e-01
  4.6663821e-01   1.0464551e-01
  4.4660079e-01   1.0422826e-01
 -3.7699565e-01   1.0714742e-01
 -6.1169630e-01   8.0582373e-02
  1.9631292e-01   1.3323528e-01
  6.0854316e-02   9.7418547e-02
  3.6111122e-01   9.5010549e-02
  6.9643414e-01   1.0293858e-01
  2.9561603e-01   6.2234327e-02
  1.5701303e+00   1.0821921e-01
  2.3562129e-01   1.3377443e-01
  4.5909491e-01   1.2493683e-01