 Job started on host 2013-20140710BT
 at Sun Nov 13 23:20:54 2022

 +-------------------------------------------------+
 |                                                 |
 |      CCC   AA    SSS  TTTTT  EEEEE  PPPP        |
 |     C     A  A  S       T    E      P   P       |
 |     C     AAAA   SS     T    EEE    PPPP        |
 |     C     A  A     S    T    E      P           |
 |      CCC  A  A  SSS     T    EEEEE  P           |
 |                                                 |
 +-------------------------------------------------+
 |                                                 |
 | Materials Studio CASTEP version 2017            |
 | Ab Initio Total Energy Program                  |
 |                                                 |
 | Authors:                                        |
 | M. Segall, M. Probert, C. Pickard, P. Hasnip,   |
 | S. Clark, K. Refson, J. R. Yates, M. Payne      |
 |                                                 |
 | Contributors:                                   |
 | P. Lindan, P. Haynes, J. White, V. Milman,      |
 | N. Govind, M. Gibson, P. Tulip, V. Cocula,      |
 | B. Montanari, D. Quigley, M. Glover,            |
 | L. Bernasconi, A. Perlov, M. Plummer,           |
 | E. McNellis, J. Meyer, J. Gale, D. Jochym       |
 | J. Aarons, B. Walker, R. Gillen, D. Jones       |
 | T. Green, I. J. Bush, C. J. Armstrong,          |
 | E. J. Higgins, E. L. Brown, M. S. McFly         |
 |                                                 |
 | Copyright (c) 2000 - 2016                       |
 |                                                 |
 | Please cite                                     |
 |                                                 |
 |     "First principles methods using CASTEP"     |
 |                                                 |
 |         Zeitschrift fuer Kristallographie       |
 |           220(5-6) pp. 567-570 (2005)           |
 |                                                 |
 | S. J. Clark, M. D. Segall, C. J. Pickard,       |
 | P. J. Hasnip, M. J. Probert, K. Refson,         |
 | M. C. Payne                                     |
 |                                                 |
 |       in all publications arising from          |
 |              your use of CASTEP                 |
 |                                                 |
 +-------------------------------------------------+
 
 
 This version was compiled for i686-windows-msvc2008 on May 05 2016
 Intel(R) Math Kernel Library Version 11.1.2 
 Fundamental constants values: CODATA 2010
 
License checkout of MS_castep successful
 
 
 Pseudo atomic calculation performed for C 2s2 2p2
 
 Converged in 17 iterations to a total energy of -145.7151 eV
 
 
 Pseudo atomic calculation performed for N 2s2 2p3
 
 Converged in 21 iterations to a total energy of -261.3593 eV
 
 Calculation parallelised over 4 processes.
 Data is distributed by G-vector(2-way) and k-point(2-way)

 ************************************ Title ************************************
 CASTEP calculation from Materials Studio

 ***************************** General Parameters ******************************
  
 output verbosity                               : normal  (1)
 write checkpoint data to                       : NHG.check
 type of calculation                            : geometry optimization
 stress calculation                             : on
 density difference calculation                 : off
 electron localisation func (ELF) calculation   : off
 Hirshfeld analysis                             : on
 unlimited duration calculation
 timing information                             : on
 memory usage estimate                          : on
 write final potential to formatted file        : off
 write final density to formatted file          : off
 write BibTeX reference list                    : on
 write OTFG pseudopotential files               : on
 checkpoint writing                             : both castep_bin and check files
  
 output         length unit                     : A
 output           mass unit                     : amu
 output           time unit                     : ps
 output         charge unit                     : e
 output           spin unit                     : hbar/2
 output         energy unit                     : eV
 output          force unit                     : eV/A
 output       velocity unit                     : A/ps
 output       pressure unit                     : GPa
 output     inv_length unit                     : 1/A
 output      frequency unit                     : cm-1
 output force constant unit                     : eV/A**2
 output         volume unit                     : A**3
 output   IR intensity unit                     : (D/A)**2/amu
 output         dipole unit                     : D
 output         efield unit                     : eV/A/e
 output        entropy unit                     : J/mol/K
  
 wavefunctions paging                           : none
 random number generator seed                   : randomised (232100335)
 data distribution                              : optimal for this architecture
 optimization strategy                          : balance speed and memory

 *********************** Exchange-Correlation Parameters ***********************
  
 using functional                               : Perdew Burke Ernzerhof
 relativistic treatment                         : Koelling-Harmon
 DFT+D: Semi-empirical dispersion correction    : off

 ************************* Pseudopotential Parameters **************************
  
 pseudopotential representation                 : reciprocal space
 <beta|phi> representation                      : reciprocal space
 spin-orbit coupling                            : off

 **************************** Basis Set Parameters *****************************
  
 plane wave basis set cut-off                   :   700.0000   eV
 size of standard grid                          :     1.5000
 size of   fine   gmax                          :    20.3319   1/A
 largest prime factor in FFT                    :          5
 finite basis set correction                    : automatic
 number of sample energies                      :          3
           sample  spacing                      :     5.0000   eV

 **************************** Electronic Parameters ****************************
  
 number of  electrons                           :  78.00    
 net charge of system                           :  0.000    
 treating system as non-spin-polarized
 number of bands                                :         39

 ********************* Electronic Minimization Parameters **********************
  
 Method: Treating system as non-metallic,
         and number of  SD  steps               :          1
         and number of  CG  steps               :          4
  
 total energy / atom convergence tol.           : 0.2000E-05   eV
 eigen-energy convergence tolerance             : 0.9231E-06   eV
 max force / atom convergence tol.              : ignored
 convergence tolerance window                   :          3   cycles
 max. number of SCF cycles                      :        100
 periodic dipole correction                     : NONE

 ************************** Density Mixing Parameters **************************
  
 density-mixing scheme                          : Pulay
 max. length of mixing history                  :         20
 charge density mixing amplitude                : 0.5000    
 cut-off energy for mixing                      :  700.0       eV
 charge density mixing g-vector                 :  1.500       1/A

 *********************** Population Analysis Parameters ************************
  
 Population analysis with cutoff                :  3.000       A

 ********************** Geometry Optimization Parameters ***********************
  
 optimization method                            : BFGS
 variable cell method                           : fixed basis quality
 max. number of steps                           :       1000
 estimated bulk modulus                         :  500.0       GPa
 estimated <frequency>                          :  1668.       cm-1
 geom line minimiser                            : on
 with line minimiser tolerance                  :     0.4000
 total energy convergence tolerance             : 0.2000E-04   eV/atom
        max ionic |force| tolerance             : 0.5000E-01   eV/A
 max ionic |displacement| tolerance             : 0.2000E-02   A
   max |stress component| tolerance             : 0.1000       GPa
 convergence tolerance window                   :          2   steps
 backup results every                           :          5   steps

 *******************************************************************************
  
 
                           -------------------------------
                                      Unit Cell
                           -------------------------------
        Real Lattice(A)                      Reciprocal Lattice(1/A)
   7.2238773  -4.1707075   0.0000000        0.8697802   0.0000000   0.0000000
   0.0000000   8.3414150   0.0000000        0.4348901   0.7532517   0.0000000
   0.0000000   0.0000000  10.0019049       -0.0000000  -0.0000000   0.6281989
 
                       Lattice parameters(A)       Cell Angles
                    a =    8.341415          alpha =   90.000000
                    b =    8.341415          beta  =   90.000000
                    c =   10.001905          gamma =  120.000000
 
                       Current cell volume =  602.688366       A**3
 
                           -------------------------------
                                     Cell Contents
                           -------------------------------
                         Total number of ions in cell =   18
                      Total number of species in cell =    2
                        Max number of any one species =   12
 
            xxxxxxxxxxxxxxxxxxxxxxxxxxxxxxxxxxxxxxxxxxxxxxxxxxxxxxxxxxxx
            x  Element    Atom        Fractional coordinates of atoms  x
            x            Number           u          v          w      x
            x----------------------------------------------------------x
            x  C            1         2.493740   2.334916  -0.500000   x 
            x  C            2        -2.334916   0.158824  -0.500000   x 
            x  C            3        -0.158824  -2.493740  -0.500000   x 
            x  C            4        -2.493740  -2.334916  -0.500000   x 
            x  C            5         2.334916  -0.158824  -0.500000   x 
            x  C            6         0.158824   2.493740  -0.500000   x 
            x  C            7         2.334916   2.493740   0.500000   x 
            x  C            8         0.158824  -2.334916   0.500000   x 
            x  C            9        -2.493740  -0.158824   0.500000   x 
            x  C           10        -2.334916  -2.493740   0.500000   x 
            x  C           11        -0.158824   2.334916   0.500000   x 
            x  C           12         2.493740   0.158824   0.500000   x 
            x  N            1         2.330318   2.330318  -0.500000   x 
            x  N            2        -2.330318   0.000000  -0.500000   x 
            x  N            3         0.000000  -2.330318  -0.500000   x 
            x  N            4        -2.330318  -2.330318  -0.500000   x 
            x  N            5         2.330318  -0.000000  -0.500000   x 
            x  N            6         0.000000   2.330318  -0.500000   x 
            xxxxxxxxxxxxxxxxxxxxxxxxxxxxxxxxxxxxxxxxxxxxxxxxxxxxxxxxxxxx
 
 
                         No user defined ionic velocities
 
                           -------------------------------
                                   Details of Species
                           -------------------------------
 
                               Mass of species in AMU
                                    C   12.0109997
                                    N   14.0070000
 
                          Electric Quadrupole Moment (Barn)
                                    C    0.0332700 Isotope 11
                                    N    0.0204400 Isotope 14
 
                          Files used for pseudopotentials:
                                    C C_00PBE_OP.recpot
                                    N N_00PBE_OP.recpot
 
                           -------------------------------
                              k-Points For BZ Sampling
                           -------------------------------
                       MP grid size for SCF calculation is  2  2  2
                            with an offset of   0.250  0.250  0.000
                       Number of kpoints used =             2
 
                           -------------------------------
                               Symmetry and Constraints
                           -------------------------------
 
                      Maximum deviation from symmetry = 0.555650E-14     ANG
 
                      Number of symmetry operations   =          24
         There are no ionic constraints specified or generated for this cell
                      Point group of crystal =    27: D6h, 6/mmm, 6/m 2/m 2/m
                      Space group of crystal =   191: P6/mmm, -P 6 2
 
             Set iprint > 1 for details on symmetry rotations/translations
 
                         Centre of mass is NOT constrained
 
                         Number of cell constraints= 4
                         Cell constraints are:  1 1 3 0 0 0
 
                         External pressure/stress (GPa)
                          0.00000   0.00000   0.00000
                                    0.00000   0.00000
                                              0.00000
  
+---------------- MEMORY AND SCRATCH DISK ESTIMATES PER PROCESS --------------+
|                                                     Memory          Disk    |
| Baseline code, static data and system overhead        0.0 MB         0.0 MB |
| BLAS internal memory storage                          0.0 MB         0.0 MB |
| Model and support data                               55.5 MB         0.0 MB |
| Electronic energy minimisation requirements          39.9 MB         0.0 MB |
| Force calculation requirements                       12.3 MB         0.0 MB |
| Stress calculation requirements                      15.6 MB         0.0 MB |
|                                               ----------------------------- |
| Approx. total storage required per process           95.4 MB         0.0 MB |
|                                                                             |
| Requirements will fluctuate during execution and may exceed these estimates |
+-----------------------------------------------------------------------------+
Calculating finite basis set correction with  3 cut-off energies.
Calculating total energy with cut-off of  690.000eV.
------------------------------------------------------------------------ <-- SCF
SCF loop      Energy                           Energy gain       Timer   <-- SCF
                                               per atom          (sec)   <-- SCF
------------------------------------------------------------------------ <-- SCF
Initial  -1.85737625E+003                                          1.37  <-- SCF
      1  -3.07766312E+003                    6.77937152E+001       6.96  <-- SCF
      2  -3.44851624E+003                    2.06029508E+001      11.11  <-- SCF
      3  -3.47866448E+003                    1.67490243E+000      15.93  <-- SCF
      4  -3.47255758E+003                   -3.39272122E-001      21.03  <-- SCF
      5  -3.47084011E+003                   -9.54148873E-002      26.15  <-- SCF
      6  -3.47061263E+003                   -1.26380986E-002      32.23  <-- SCF
      7  -3.47048122E+003                   -7.30052479E-003      37.46  <-- SCF
      8  -3.47047319E+003                   -4.46061138E-004      42.87  <-- SCF
      9  -3.47044657E+003                   -1.47870789E-003      47.61  <-- SCF
     10  -3.47046420E+003                    9.79113925E-004      52.82  <-- SCF
     11  -3.47049691E+003                    1.81754495E-003      57.55  <-- SCF
     12  -3.47051110E+003                    7.88117284E-004      61.73  <-- SCF
     13  -3.47051335E+003                    1.24965474E-004      65.46  <-- SCF
     14  -3.47051454E+003                    6.61278264E-005      69.25  <-- SCF
     15  -3.47051469E+003                    8.21883049E-006      72.68  <-- SCF
     16  -3.47051485E+003                    9.01674808E-006      75.99  <-- SCF
     17  -3.47051486E+003                    8.33748938E-007      79.33  <-- SCF
     18  -3.47051487E+003                    4.82744507E-007      82.76  <-- SCF
------------------------------------------------------------------------ <-- SCF
 
Final energy =  -3470.514872782     eV
(energy not corrected for finite basis set)
 
Calculating total energy with cut-off of  695.000eV.
------------------------------------------------------------------------ <-- SCF
SCF loop      Energy                           Energy gain       Timer   <-- SCF
                                               per atom          (sec)   <-- SCF
------------------------------------------------------------------------ <-- SCF
Initial  -3.47051458E+003                                         84.58  <-- SCF
      1  -3.47051670E+003                    1.17381573E-004      88.72  <-- SCF
      2  -3.47051670E+003                    1.98195123E-008      92.10  <-- SCF
      3  -3.47051669E+003                   -2.22086168E-007      95.49  <-- SCF
      4  -3.47051670E+003                    2.01355899E-007      98.86  <-- SCF
------------------------------------------------------------------------ <-- SCF
 
Final energy =  -3470.516695365     eV
(energy not corrected for finite basis set)
 
Calculating total energy with cut-off of  700.000eV.
------------------------------------------------------------------------ <-- SCF
SCF loop      Energy                           Energy gain       Timer   <-- SCF
                                               per atom          (sec)   <-- SCF
------------------------------------------------------------------------ <-- SCF
Initial  -3.47051640E+003                                        100.61  <-- SCF
      1  -3.47051823E+003                    1.01552664E-004     104.68  <-- SCF
      2  -3.47051823E+003                    8.35716753E-009     108.11  <-- SCF
      3  -3.47051823E+003                   -2.57554451E-007     111.57  <-- SCF
      4  -3.47051823E+003                    2.34295999E-007     115.07  <-- SCF
------------------------------------------------------------------------ <-- SCF
 
Final energy =  -3470.518232492     eV
(energy not corrected for finite basis set)
 
 For future reference: finite basis dEtot/dlog(Ecut) =      -0.239952eV
 Total energy corrected for finite basis set =   -3470.518299 eV
 
+---------------- MEMORY AND SCRATCH DISK ESTIMATES PER PROCESS --------------+
|                                                     Memory          Disk    |
| Model and support data                               64.0 MB         0.0 MB |
| Electronic energy minimisation requirements          39.9 MB         0.0 MB |
| Geometry minimisation requirements                   48.4 MB         0.0 MB |
|                                               ----------------------------- |
| Approx. total storage required per process          152.4 MB         0.0 MB |
|                                                                             |
| Requirements will fluctuate during execution and may exceed these estimates |
+-----------------------------------------------------------------------------+
 
 
 *********************************** Forces ***********************************
 *                                                                            *
 *                        Cartesian components (eV/A)                         *
 * -------------------------------------------------------------------------- *
 *                   x                    y                    z              *
 *                                                                            *
 * C         1      0.11850              0.20030             -0.00000         *
 * C         2     -0.23272              0.00247             -0.00000         *
 * C         3      0.11422             -0.20278             -0.00000         *
 * C         4     -0.11850             -0.20030             -0.00000         *
 * C         5      0.23272             -0.00247             -0.00000         *
 * C         6     -0.11422              0.20278             -0.00000         *
 * C         7      0.23272              0.00247             -0.00000         *
 * C         8     -0.11422             -0.20278             -0.00000         *
 * C         9     -0.11850              0.20030             -0.00000         *
 * C        10     -0.23272             -0.00247             -0.00000         *
 * C        11      0.11422              0.20278              0.00000         *
 * C        12      0.11850             -0.20030             -0.00000         *
 * N         1      0.01099              0.00635              0.00000         *
 * N         2     -0.01099              0.00635              0.00000         *
 * N         3      0.00000             -0.01270             -0.00000         *
 * N         4     -0.01099             -0.00635              0.00000         *
 * N         5      0.01099             -0.00635              0.00000         *
 * N         6      0.00000              0.01270              0.00000         *
 *                                                                            *
 ******************************************************************************
 
 ***************** Stress Tensor *****************
 *                                               *
 *          Cartesian components (GPa)           *
 * --------------------------------------------- *
 *             x             y             z     *
 *                                               *
 *  x     -0.104769      0.000000      0.000000  *
 *  y      0.000000     -0.104769     -0.000000  *
 *  z      0.000000     -0.000000     -0.006936  *
 *                                               *
 *  Pressure:    0.0722                          *
 *                                               *
 *************************************************
 BFGS: finished iteration     0 with enthalpy= -3.47051830E+003 eV
  
 +-----------+-----------------+-----------------+------------+-----+ <-- BFGS
 | Parameter |      value      |    tolerance    |    units   | OK? | <-- BFGS
 +-----------+-----------------+-----------------+------------+-----+ <-- BFGS
 |  dE/ion   |   0.000000E+000 |   2.000000E-005 |         eV | No  | <-- BFGS
 |  |F|max   |   2.327307E-001 |   5.000000E-002 |       eV/A | No  | <-- BFGS
 |  |dR|max  |   0.000000E+000 |   2.000000E-003 |          A | No  | <-- BFGS
 |   Smax    |   1.047689E-001 |   1.000000E-001 |        GPa | No  | <-- BFGS
 +-----------+-----------------+-----------------+------------+-----+ <-- BFGS
  

================================================================================
 Starting BFGS iteration          1 ...
================================================================================
  
 +------------+-------------+-------------+-----------------+ <-- min BFGS
 |    Step    |   lambda    |   F.delta'  |    enthalpy     | <-- min BFGS
 +------------+-------------+-------------+-----------------+ <-- min BFGS
 |  previous  |    0.000000 |    0.215125 |    -3470.518299 | <-- min BFGS
 +------------+-------------+-------------+-----------------+ <-- min BFGS
  

--------------------------------------------------------------------------------
 BFGS: starting iteration         1 with trial guess (lambda=  1.000000)
--------------------------------------------------------------------------------
 
+---------------- MEMORY AND SCRATCH DISK ESTIMATES PER PROCESS --------------+
|                                                     Memory          Disk    |
| Model and support data                               64.1 MB         0.0 MB |
| Electronic energy minimisation requirements          39.9 MB         0.0 MB |
| Geometry minimisation requirements                   48.4 MB         0.0 MB |
|                                               ----------------------------- |
| Approx. total storage required per process          152.4 MB         0.0 MB |
|                                                                             |
| Requirements will fluctuate during execution and may exceed these estimates |
+-----------------------------------------------------------------------------+
 
 
                           -------------------------------
                                      Unit Cell
                           -------------------------------
        Real Lattice(A)              Reciprocal Lattice(1/A)
   7.2243818  -4.1709988   0.0000000        0.8697194   0.0000000  -0.0000000
  -0.0000000   8.3419976   0.0000000        0.4348597   0.7531991  -0.0000000
   0.0000000   0.0000000  10.0019512       -0.0000000  -0.0000000   0.6281960
 
                       Lattice parameters(A)       Cell Angles
                    a =    8.341998          alpha =   90.000000
                    b =    8.341998          beta  =   90.000000
                    c =   10.001951          gamma =  120.000000
 
                Current cell volume =  602.775347 A**3
 
                           -------------------------------
                                     Cell Contents
                           -------------------------------
 
            xxxxxxxxxxxxxxxxxxxxxxxxxxxxxxxxxxxxxxxxxxxxxxxxxxxxxxxxxxxx
            x  Element    Atom        Fractional coordinates of atoms  x
            x            Number           u          v          w      x
            x----------------------------------------------------------x
            x  C            1         2.493867   2.335165  -0.500000   x
            x  C            2        -2.335165   0.158702  -0.500000   x
            x  C            3        -0.158702  -2.493867  -0.500000   x
            x  C            4        -2.493867  -2.335165  -0.500000   x
            x  C            5         2.335165  -0.158702  -0.500000   x
            x  C            6         0.158702   2.493867  -0.500000   x
            x  C            7         2.335165   2.493867   0.500000   x
            x  C            8         0.158702  -2.335165   0.500000   x
            x  C            9        -2.493867  -0.158702   0.500000   x
            x  C           10        -2.335165  -2.493867   0.500000   x
            x  C           11        -0.158702   2.335165   0.500000   x
            x  C           12         2.493867   0.158702   0.500000   x
            x  N            1         2.330330   2.330330  -0.500000   x
            x  N            2        -2.330330   0.000000  -0.500000   x
            x  N            3         0.000000  -2.330330  -0.500000   x
            x  N            4        -2.330330  -2.330330  -0.500000   x
            x  N            5         2.330330  -0.000000  -0.500000   x
            x  N            6         0.000000   2.330330  -0.500000   x
            xxxxxxxxxxxxxxxxxxxxxxxxxxxxxxxxxxxxxxxxxxxxxxxxxxxxxxxxxxxx
 
 
------------------------------------------------------------------------ <-- SCF
SCF loop      Energy                           Energy gain       Timer   <-- SCF
                                               per atom          (sec)   <-- SCF
------------------------------------------------------------------------ <-- SCF
Initial  -3.47049541E+003                                        119.62  <-- SCF
      1  -3.47053055E+003                    1.95171566E-003     123.83  <-- SCF
      2  -3.47053131E+003                    4.27344501E-005     129.71  <-- SCF
      3  -3.47052285E+003                   -4.70020143E-004     134.47  <-- SCF
      4  -3.47052171E+003                   -6.38404101E-005     140.31  <-- SCF
      5  -3.47052170E+003                   -3.58158584E-007     143.69  <-- SCF
      6  -3.47052169E+003                   -2.81421908E-007     147.03  <-- SCF
------------------------------------------------------------------------ <-- SCF
 
Final energy =  -3470.521693587     eV
(energy not corrected for finite basis set)
 
 
 *********************************** Forces ***********************************
 *                                                                            *
 *                        Cartesian components (eV/A)                         *
 * -------------------------------------------------------------------------- *
 *                   x                    y                    z              *
 *                                                                            *
 * C         1      0.04757              0.07492             -0.00000         *
 * C         2     -0.08867              0.00373             -0.00000         *
 * C         3      0.04110             -0.07866             -0.00000         *
 * C         4     -0.04757             -0.07492             -0.00000         *
 * C         5      0.08867             -0.00373             -0.00000         *
 * C         6     -0.04110              0.07866             -0.00000         *
 * C         7      0.08867              0.00373              0.00000         *
 * C         8     -0.04110             -0.07866             -0.00000         *
 * C         9     -0.04757              0.07492             -0.00000         *
 * C        10     -0.08867             -0.00373             -0.00000         *
 * C        11      0.04110              0.07866             -0.00000         *
 * C        12      0.04757             -0.07492             -0.00000         *
 * N         1      0.03662              0.02114              0.00000         *
 * N         2     -0.03662              0.02114             -0.00000         *
 * N         3      0.00000             -0.04228             -0.00000         *
 * N         4     -0.03662             -0.02114             -0.00000         *
 * N         5      0.03662             -0.02114              0.00000         *
 * N         6      0.00000              0.04228              0.00000         *
 *                                                                            *
 ******************************************************************************
 
 ***************** Stress Tensor *****************
 *                                               *
 *          Cartesian components (GPa)           *
 * --------------------------------------------- *
 *             x             y             z     *
 *                                               *
 *  x     -0.121222      0.000000     -0.000000  *
 *  y      0.000000     -0.121222     -0.000000  *
 *  z     -0.000000     -0.000000     -0.012086  *
 *                                               *
 *  Pressure:    0.0848                          *
 *                                               *
 *************************************************
  
 +------------+-------------+-------------+-----------------+ <-- min BFGS
 |    Step    |   lambda    |   F.delta'  |    enthalpy     | <-- min BFGS
 +------------+-------------+-------------+-----------------+ <-- min BFGS
 |  previous  |    0.000000 |    0.215125 |    -3470.518299 | <-- min BFGS
 | trial step |    1.000000 |    0.084750 |    -3470.521698 | <-- min BFGS
 +------------+-------------+-------------+-----------------+ <-- min BFGS
  

--------------------------------------------------------------------------------
 BFGS: improving iteration         1 with line minimization (lambda=  1.650044)
--------------------------------------------------------------------------------
 
                           -------------------------------
                                      Unit Cell
                           -------------------------------
        Real Lattice(A)              Reciprocal Lattice(1/A)
   7.2247098  -4.1711882   0.0000000        0.8696800   0.0000000  -0.0000000
  -0.0000000   8.3423763   0.0000000        0.4348400   0.7531649  -0.0000000
   0.0000000   0.0000000  10.0019812       -0.0000000  -0.0000000   0.6281941
 
                       Lattice parameters(A)       Cell Angles
                    a =    8.342376          alpha =   90.000000
                    b =    8.342376          beta  =   90.000000
                    c =   10.001981          gamma =  120.000000
 
                Current cell volume =  602.831892 A**3
 
                           -------------------------------
                                     Cell Contents
                           -------------------------------
 
            xxxxxxxxxxxxxxxxxxxxxxxxxxxxxxxxxxxxxxxxxxxxxxxxxxxxxxxxxxxx
            x  Element    Atom        Fractional coordinates of atoms  x
            x            Number           u          v          w      x
            x----------------------------------------------------------x
            x  C            1         2.493949   2.335326  -0.500000   x
            x  C            2        -2.335326   0.158623  -0.500000   x
            x  C            3        -0.158623  -2.493949  -0.500000   x
            x  C            4        -2.493949  -2.335326  -0.500000   x
            x  C            5         2.335326  -0.158623  -0.500000   x
            x  C            6         0.158623   2.493949  -0.500000   x
            x  C            7         2.335326   2.493949   0.500000   x
            x  C            8         0.158623  -2.335326   0.500000   x
            x  C            9        -2.493949  -0.158623   0.500000   x
            x  C           10        -2.335326  -2.493949   0.500000   x
            x  C           11        -0.158623   2.335326   0.500000   x
            x  C           12         2.493949   0.158623   0.500000   x
            x  N            1         2.330338   2.330338  -0.500000   x
            x  N            2        -2.330338   0.000000  -0.500000   x
            x  N            3         0.000000  -2.330338  -0.500000   x
            x  N            4        -2.330338  -2.330338  -0.500000   x
            x  N            5         2.330338  -0.000000  -0.500000   x
            x  N            6         0.000000   2.330338  -0.500000   x
            xxxxxxxxxxxxxxxxxxxxxxxxxxxxxxxxxxxxxxxxxxxxxxxxxxxxxxxxxxxx
 
 
------------------------------------------------------------------------ <-- SCF
SCF loop      Energy                           Energy gain       Timer   <-- SCF
                                               per atom          (sec)   <-- SCF
------------------------------------------------------------------------ <-- SCF
Initial  -3.47051109E+003                                        151.68  <-- SCF
      1  -3.47052584E+003                    8.19075486E-004     155.83  <-- SCF
      2  -3.47052612E+003                    1.60134032E-005     161.18  <-- SCF
      3  -3.47052272E+003                   -1.89314367E-004     166.02  <-- SCF
      4  -3.47052226E+003                   -2.54456082E-005     171.65  <-- SCF
      5  -3.47052226E+003                    2.76674428E-007     175.08  <-- SCF
      6  -3.47052226E+003                   -8.18995973E-008     178.56  <-- SCF
------------------------------------------------------------------------ <-- SCF
 
Final energy =  -3470.522262495     eV
(energy not corrected for finite basis set)
 
 
 *********************************** Forces ***********************************
 *                                                                            *
 *                        Cartesian components (eV/A)                         *
 * -------------------------------------------------------------------------- *
 *                   x                    y                    z              *
 *                                                                            *
 * C         1     -0.00186             -0.00609              0.00000         *
 * C         2      0.00620              0.00144             -0.00000         *
 * C         3     -0.00435              0.00465             -0.00000         *
 * C         4      0.00186              0.00609              0.00000         *
 * C         5     -0.00620             -0.00144             -0.00000         *
 * C         6      0.00435             -0.00465             -0.00000         *
 * C         7     -0.00620              0.00144             -0.00000         *
 * C         8      0.00435              0.00465              0.00000         *
 * C         9      0.00186             -0.00609              0.00000         *
 * C        10      0.00620             -0.00144              0.00000         *
 * C        11     -0.00435             -0.00465              0.00000         *
 * C        12     -0.00186              0.00609             -0.00000         *
 * N         1      0.04519              0.02609              0.00000         *
 * N         2     -0.04519              0.02609              0.00000         *
 * N         3      0.00000             -0.05218              0.00000         *
 * N         4     -0.04519             -0.02609              0.00000         *
 * N         5      0.04519             -0.02609              0.00000         *
 * N         6      0.00000              0.05218              0.00000         *
 *                                                                            *
 ******************************************************************************
 
 ***************** Stress Tensor *****************
 *                                               *
 *          Cartesian components (GPa)           *
 * --------------------------------------------- *
 *             x             y             z     *
 *                                               *
 *  x     -0.128170      0.000000     -0.000000  *
 *  y      0.000000     -0.128170     -0.000000  *
 *  z     -0.000000     -0.000000     -0.009918  *
 *                                               *
 *  Pressure:    0.0888                          *
 *                                               *
 *************************************************
  
 +------------+-------------+-------------+-----------------+ <-- min BFGS
 |    Step    |   lambda    |   F.delta'  |    enthalpy     | <-- min BFGS
 +------------+-------------+-------------+-----------------+ <-- min BFGS
 |  previous  |    0.000000 |    0.215125 |    -3470.518299 | <-- min BFGS
 | trial step |    1.000000 |    0.084750 |    -3470.521698 | <-- min BFGS
 |  line step |    1.650044 |   -0.001487 |    -3470.522281 | <-- min BFGS
 +------------+-------------+-------------+-----------------+ <-- min BFGS
  
 BFGS: finished iteration     1 with enthalpy= -3.47052228E+003 eV
  
 +-----------+-----------------+-----------------+------------+-----+ <-- BFGS
 | Parameter |      value      |    tolerance    |    units   | OK? | <-- BFGS
 +-----------+-----------------+-----------------+------------+-----+ <-- BFGS
 |  dE/ion   |   2.212715E-004 |   2.000000E-005 |         eV | No  | <-- BFGS
 |  |F|max   |   5.218021E-002 |   5.000000E-002 |       eV/A | No  | <-- BFGS
 |  |dR|max  |   2.961878E-003 |   2.000000E-003 |          A | No  | <-- BFGS
 |   Smax    |   1.281697E-001 |   1.000000E-001 |        GPa | No  | <-- BFGS
 +-----------+-----------------+-----------------+------------+-----+ <-- BFGS
  

================================================================================
 Starting BFGS iteration          2 ...
================================================================================
  
 +------------+-------------+-------------+-----------------+ <-- min BFGS
 |    Step    |   lambda    |   F.delta'  |    enthalpy     | <-- min BFGS
 +------------+-------------+-------------+-----------------+ <-- min BFGS
 |  previous  |    0.000000 |    0.041700 |    -3470.522281 | <-- min BFGS
 +------------+-------------+-------------+-----------------+ <-- min BFGS
  

--------------------------------------------------------------------------------
 BFGS: starting iteration         2 with trial guess (lambda=  1.000000)
--------------------------------------------------------------------------------
 
                           -------------------------------
                                      Unit Cell
                           -------------------------------
        Real Lattice(A)              Reciprocal Lattice(1/A)
   7.2253415  -4.1715528   0.0000000        0.8696039   0.0000000  -0.0000000
  -0.0000000   8.3431057   0.0000000        0.4348020   0.7530991  -0.0000000
   0.0000000   0.0000000  10.0020486       -0.0000000  -0.0000000   0.6281898
 
                       Lattice parameters(A)       Cell Angles
                    a =    8.343106          alpha =   90.000000
                    b =    8.343106          beta  =   90.000000
                    c =   10.002049          gamma =  120.000000
 
                Current cell volume =  602.941369 A**3
 
                           -------------------------------
                                     Cell Contents
                           -------------------------------
 
            xxxxxxxxxxxxxxxxxxxxxxxxxxxxxxxxxxxxxxxxxxxxxxxxxxxxxxxxxxxx
            x  Element    Atom        Fractional coordinates of atoms  x
            x            Number           u          v          w      x
            x----------------------------------------------------------x
            x  C            1         2.493952   2.335329  -0.500000   x
            x  C            2        -2.335329   0.158623  -0.500000   x
            x  C            3        -0.158623  -2.493952  -0.500000   x
            x  C            4        -2.493952  -2.335329  -0.500000   x
            x  C            5         2.335329  -0.158623  -0.500000   x
            x  C            6         0.158623   2.493952  -0.500000   x
            x  C            7         2.335329   2.493952   0.500000   x
            x  C            8         0.158623  -2.335329   0.500000   x
            x  C            9        -2.493952  -0.158623   0.500000   x
            x  C           10        -2.335329  -2.493952   0.500000   x
            x  C           11        -0.158623   2.335329   0.500000   x
            x  C           12         2.493952   0.158623   0.500000   x
            x  N            1         2.330386   2.330386  -0.500000   x
            x  N            2        -2.330386   0.000000  -0.500000   x
            x  N            3        -0.000000  -2.330386  -0.500000   x
            x  N            4        -2.330386  -2.330386  -0.500000   x
            x  N            5         2.330386  -0.000000  -0.500000   x
            x  N            6         0.000000   2.330386  -0.500000   x
            xxxxxxxxxxxxxxxxxxxxxxxxxxxxxxxxxxxxxxxxxxxxxxxxxxxxxxxxxxxx
 
 
------------------------------------------------------------------------ <-- SCF
SCF loop      Energy                           Energy gain       Timer   <-- SCF
                                               per atom          (sec)   <-- SCF
------------------------------------------------------------------------ <-- SCF
Initial  -3.47052104E+003                                        182.93  <-- SCF
      1  -3.47052277E+003                    9.65982430E-005     187.03  <-- SCF
      2  -3.47052279E+003                    7.22091199E-007     190.41  <-- SCF
      3  -3.47052246E+003                   -1.81756968E-005     194.28  <-- SCF
      4  -3.47052242E+003                   -2.24870099E-006     198.15  <-- SCF
      5  -3.47052242E+003                   -3.28398594E-008     201.60  <-- SCF
      6  -3.47052241E+003                   -2.40065046E-007     205.02  <-- SCF
------------------------------------------------------------------------ <-- SCF
 
Final energy =  -3470.522414825     eV
(energy not corrected for finite basis set)
 
 
 *********************************** Forces ***********************************
 *                                                                            *
 *                        Cartesian components (eV/A)                         *
 * -------------------------------------------------------------------------- *
 *                   x                    y                    z              *
 *                                                                            *
 * C         1     -0.00102             -0.01577              0.00000         *
 * C         2      0.01416              0.00700             -0.00000         *
 * C         3     -0.01314              0.00876             -0.00000         *
 * C         4      0.00102              0.01577             -0.00000         *
 * C         5     -0.01416             -0.00700              0.00000         *
 * C         6      0.01314             -0.00876              0.00000         *
 * C         7     -0.01416              0.00700             -0.00000         *
 * C         8      0.01314              0.00876             -0.00000         *
 * C         9      0.00102             -0.01577             -0.00000         *
 * C        10      0.01416             -0.00700             -0.00000         *
 * C        11     -0.01314             -0.00876             -0.00000         *
 * C        12     -0.00102              0.01577             -0.00000         *
 * N         1      0.02172              0.01254              0.00000         *
 * N         2     -0.02172              0.01254             -0.00000         *
 * N         3      0.00000             -0.02509             -0.00000         *
 * N         4     -0.02172             -0.01254             -0.00000         *
 * N         5      0.02172             -0.01254              0.00000         *
 * N         6      0.00000              0.02509              0.00000         *
 *                                                                            *
 ******************************************************************************
 
 ***************** Stress Tensor *****************
 *                                               *
 *          Cartesian components (GPa)           *
 * --------------------------------------------- *
 *             x             y             z     *
 *                                               *
 *  x     -0.119033     -0.000000     -0.000000  *
 *  y     -0.000000     -0.119033     -0.000000  *
 *  z     -0.000000     -0.000000     -0.006396  *
 *                                               *
 *  Pressure:    0.0815                          *
 *                                               *
 *************************************************
  
 +------------+-------------+-------------+-----------------+ <-- min BFGS
 |    Step    |   lambda    |   F.delta'  |    enthalpy     | <-- min BFGS
 +------------+-------------+-------------+-----------------+ <-- min BFGS
 |  previous  |    0.000000 |    0.041700 |    -3470.522281 | <-- min BFGS
 | trial step |    1.000000 |    0.027253 |    -3470.522463 | <-- min BFGS
 +------------+-------------+-------------+-----------------+ <-- min BFGS
  

--------------------------------------------------------------------------------
 BFGS: improving iteration         2 with line minimization (lambda=  2.886480)
--------------------------------------------------------------------------------
 
+---------------- MEMORY AND SCRATCH DISK ESTIMATES PER PROCESS --------------+
|                                                     Memory          Disk    |
| Model and support data                               67.9 MB         0.0 MB |
| Electronic energy minimisation requirements          41.9 MB         0.0 MB |
| Geometry minimisation requirements                   50.6 MB         0.0 MB |
|                                               ----------------------------- |
| Approx. total storage required per process          160.4 MB         0.0 MB |
|                                                                             |
| Requirements will fluctuate during execution and may exceed these estimates |
+-----------------------------------------------------------------------------+
 
 
                           -------------------------------
                                      Unit Cell
                           -------------------------------
        Real Lattice(A)              Reciprocal Lattice(1/A)
   7.2265331  -4.1722408   0.0000000        0.8694605   0.0000000  -0.0000000
  -0.0000000   8.3444816   0.0000000        0.4347303   0.7529749  -0.0000000
   0.0000000   0.0000000  10.0021758       -0.0000000  -0.0000000   0.6281819
 
                       Lattice parameters(A)       Cell Angles
                    a =    8.344482          alpha =   90.000000
                    b =    8.344482          beta  =   90.000000
                    c =   10.002176          gamma =  120.000000
 
                Current cell volume =  603.147924 A**3
 
                           -------------------------------
                                     Cell Contents
                           -------------------------------
 
            xxxxxxxxxxxxxxxxxxxxxxxxxxxxxxxxxxxxxxxxxxxxxxxxxxxxxxxxxxxx
            x  Element    Atom        Fractional coordinates of atoms  x
            x            Number           u          v          w      x
            x----------------------------------------------------------x
            x  C            1         2.493957   2.335333  -0.500000   x
            x  C            2        -2.335333   0.158623  -0.500000   x
            x  C            3        -0.158623  -2.493957  -0.500000   x
            x  C            4        -2.493957  -2.335333  -0.500000   x
            x  C            5         2.335333  -0.158623  -0.500000   x
            x  C            6         0.158623   2.493957  -0.500000   x
            x  C            7         2.335333   2.493957   0.500000   x
            x  C            8         0.158623  -2.335333   0.500000   x
            x  C            9        -2.493957  -0.158623   0.500000   x
            x  C           10        -2.335333  -2.493957   0.500000   x
            x  C           11        -0.158623   2.335333   0.500000   x
            x  C           12         2.493957   0.158623   0.500000   x
            x  N            1         2.330477   2.330477  -0.500000   x
            x  N            2        -2.330477   0.000000  -0.500000   x
            x  N            3        -0.000000  -2.330477  -0.500000   x
            x  N            4        -2.330477  -2.330477  -0.500000   x
            x  N            5         2.330477  -0.000000  -0.500000   x
            x  N            6         0.000000   2.330477  -0.500000   x
            xxxxxxxxxxxxxxxxxxxxxxxxxxxxxxxxxxxxxxxxxxxxxxxxxxxxxxxxxxxx
 
 
------------------------------------------------------------------------ <-- SCF
SCF loop      Energy                           Energy gain       Timer   <-- SCF
                                               per atom          (sec)   <-- SCF
------------------------------------------------------------------------ <-- SCF
Initial  -3.47052471E+003                                        209.63  <-- SCF
      1  -3.47053002E+003                    2.95234827E-004     214.39  <-- SCF
      2  -3.47053009E+003                    3.93264071E-006     219.18  <-- SCF
      3  -3.47052887E+003                   -6.80102562E-005     224.67  <-- SCF
      4  -3.47052869E+003                   -9.86060331E-006     230.02  <-- SCF
      5  -3.47052867E+003                   -1.37429546E-006     234.14  <-- SCF
      6  -3.47052865E+003                   -7.50865627E-007     238.21  <-- SCF
      7  -3.47052865E+003                   -7.23906312E-008     242.36  <-- SCF
------------------------------------------------------------------------ <-- SCF
 
Final energy =  -3470.528650405     eV
(energy not corrected for finite basis set)
 
 
 *********************************** Forces ***********************************
 *                                                                            *
 *                        Cartesian components (eV/A)                         *
 * -------------------------------------------------------------------------- *
 *                   x                    y                    z              *
 *                                                                            *
 * C         1      0.00337             -0.00846             -0.00000         *
 * C         2      0.00564              0.00715             -0.00000         *
 * C         3     -0.00901              0.00131             -0.00000         *
 * C         4     -0.00337              0.00846             -0.00000         *
 * C         5     -0.00564             -0.00715              0.00000         *
 * C         6      0.00901             -0.00131             -0.00000         *
 * C         7     -0.00564              0.00715              0.00000         *
 * C         8      0.00901              0.00131             -0.00000         *
 * C         9     -0.00337             -0.00846              0.00000         *
 * C        10      0.00564             -0.00715              0.00000         *
 * C        11     -0.00901             -0.00131             -0.00000         *
 * C        12      0.00337              0.00846             -0.00000         *
 * N         1      0.03301              0.01906             -0.00000         *
 * N         2     -0.03301              0.01906              0.00000         *
 * N         3      0.00000             -0.03812              0.00000         *
 * N         4     -0.03301             -0.01906              0.00000         *
 * N         5      0.03301             -0.01906             -0.00000         *
 * N         6      0.00000              0.03812             -0.00000         *
 *                                                                            *
 ******************************************************************************
 
 ***************** Stress Tensor *****************
 *                                               *
 *          Cartesian components (GPa)           *
 * --------------------------------------------- *
 *             x             y             z     *
 *                                               *
 *  x     -0.122038      0.000000     -0.000000  *
 *  y      0.000000     -0.122038     -0.000000  *
 *  z     -0.000000     -0.000000     -0.014312  *
 *                                               *
 *  Pressure:    0.0861                          *
 *                                               *
 *************************************************
  
 +------------+-------------+-------------+-----------------+ <-- min BFGS
 |    Step    |   lambda    |   F.delta'  |    enthalpy     | <-- min BFGS
 +------------+-------------+-------------+-----------------+ <-- min BFGS
 |  previous  |    0.000000 |    0.041700 |    -3470.522281 | <-- min BFGS
 | trial step |    1.000000 |    0.027253 |    -3470.522463 | <-- min BFGS
 |  line step |    2.886480 |    0.034346 |    -3470.528668 | <-- min BFGS
 +------------+-------------+-------------+-----------------+ <-- min BFGS
  

--------------------------------------------------------------------------------
 BFGS: improving iteration         2 with quad minimization (lambda= -6.248442)
--------------------------------------------------------------------------------
 
                           -------------------------------
                                      Unit Cell
                           -------------------------------
        Real Lattice(A)              Reciprocal Lattice(1/A)
   7.2207630  -4.1689095   0.0000000        0.8701553  -0.0000000   0.0000000
   0.0000000   8.3378189   0.0000000        0.4350777   0.7535766   0.0000000
  -0.0000000  -0.0000000  10.0015601       -0.0000000  -0.0000000   0.6282205
 
                       Lattice parameters(A)       Cell Angles
                    a =    8.337819          alpha =   90.000000
                    b =    8.337819          beta  =   90.000000
                    c =   10.001560          gamma =  120.000000
 
                Current cell volume =  602.148073 A**3
 
                           -------------------------------
                                     Cell Contents
                           -------------------------------
 
            xxxxxxxxxxxxxxxxxxxxxxxxxxxxxxxxxxxxxxxxxxxxxxxxxxxxxxxxxxxx
            x  Element    Atom        Fractional coordinates of atoms  x
            x            Number           u          v          w      x
            x----------------------------------------------------------x
            x  C            1         2.493932   2.335310  -0.500000   x
            x  C            2        -2.335310   0.158622  -0.500000   x
            x  C            3        -0.158622  -2.493932  -0.500000   x
            x  C            4        -2.493932  -2.335310  -0.500000   x
            x  C            5         2.335310  -0.158622  -0.500000   x
            x  C            6         0.158622   2.493932  -0.500000   x
            x  C            7         2.335310   2.493932   0.500000   x
            x  C            8         0.158622  -2.335310   0.500000   x
            x  C            9        -2.493932  -0.158622   0.500000   x
            x  C           10        -2.335310  -2.493932   0.500000   x
            x  C           11        -0.158622   2.335310   0.500000   x
            x  C           12         2.493932   0.158622   0.500000   x
            x  N            1         2.330036   2.330036  -0.500000   x
            x  N            2        -2.330036   0.000000  -0.500000   x
            x  N            3         0.000000  -2.330036  -0.500000   x
            x  N            4        -2.330036  -2.330036  -0.500000   x
            x  N            5         2.330036  -0.000000  -0.500000   x
            x  N            6        -0.000000   2.330036  -0.500000   x
            xxxxxxxxxxxxxxxxxxxxxxxxxxxxxxxxxxxxxxxxxxxxxxxxxxxxxxxxxxxx
 
 
------------------------------------------------------------------------ <-- SCF
SCF loop      Energy                           Energy gain       Timer   <-- SCF
                                               per atom          (sec)   <-- SCF
------------------------------------------------------------------------ <-- SCF
Initial  -3.47042537E+003                                        247.26  <-- SCF
      1  -3.47055310E+003                    7.09590866E-003     251.32  <-- SCF
      2  -3.47055535E+003                    1.25240870E-004     257.89  <-- SCF
      3  -3.47052620E+003                   -1.61967587E-003     263.03  <-- SCF
      4  -3.47052103E+003                   -2.87131175E-004     268.76  <-- SCF
      5  -3.47052022E+003                   -4.51880477E-005     273.55  <-- SCF
      6  -3.47052005E+003                   -9.27425493E-006     278.02  <-- SCF
      7  -3.47052012E+003                    3.90631055E-006     281.52  <-- SCF
      8  -3.47052038E+003                    1.41475086E-005     285.06  <-- SCF
      9  -3.47052050E+003                    6.83724034E-006     288.52  <-- SCF
     10  -3.47052062E+003                    6.41701722E-006     291.92  <-- SCF
     11  -3.47052067E+003                    2.82075133E-006     295.36  <-- SCF
     12  -3.47052069E+003                    1.16495959E-006     298.79  <-- SCF
     13  -3.47052069E+003                    2.37910843E-007     302.27  <-- SCF
------------------------------------------------------------------------ <-- SCF
 
Final energy =  -3470.520691466     eV
(energy not corrected for finite basis set)
 
 
 *********************************** Forces ***********************************
 *                                                                            *
 *                        Cartesian components (eV/A)                         *
 * -------------------------------------------------------------------------- *
 *                   x                    y                    z              *
 *                                                                            *
 * C         1     -0.03491             -0.00464             -0.00000         *
 * C         2      0.02147             -0.02791              0.00000         *
 * C         3      0.01343              0.03255              0.00000         *
 * C         4      0.03491              0.00464              0.00000         *
 * C         5     -0.02147              0.02791             -0.00000         *
 * C         6     -0.01343             -0.03255             -0.00000         *
 * C         7     -0.02147             -0.02791             -0.00000         *
 * C         8     -0.01343              0.03255              0.00000         *
 * C         9      0.03491             -0.00464              0.00000         *
 * C        10      0.02147              0.02791              0.00000         *
 * C        11      0.01343             -0.03255             -0.00000         *
 * C        12     -0.03491              0.00464             -0.00000         *
 * N         1      0.08162              0.04712              0.00000         *
 * N         2     -0.08162              0.04712             -0.00000         *
 * N         3      0.00000             -0.09424             -0.00000         *
 * N         4     -0.08162             -0.04712             -0.00000         *
 * N         5      0.08162             -0.04712              0.00000         *
 * N         6      0.00000              0.09424              0.00000         *
 *                                                                            *
 ******************************************************************************
 
 ***************** Stress Tensor *****************
 *                                               *
 *          Cartesian components (GPa)           *
 * --------------------------------------------- *
 *             x             y             z     *
 *                                               *
 *  x     -0.167177     -0.000000     -0.000000  *
 *  y     -0.000000     -0.167177     -0.000000  *
 *  z     -0.000000     -0.000000     -0.007596  *
 *                                               *
 *  Pressure:    0.1140                          *
 *                                               *
 *************************************************
  
 +------------+-------------+-------------+-----------------+ <-- min BFGS
 |    Step    |   lambda    |   F.delta'  |    enthalpy     | <-- min BFGS
 +------------+-------------+-------------+-----------------+ <-- min BFGS
 |  previous  |    0.000000 |    0.041700 |    -3470.522281 | <-- min BFGS
 | trial step |    1.000000 |    0.027253 |    -3470.522463 | <-- min BFGS
 |  line step |    2.886480 |    0.034346 |    -3470.528668 | <-- min BFGS
 |  quad step |   -6.248442 |    0.065503 |    -3470.520728 | <-- min BFGS
 +------------+-------------+-------------+-----------------+ <-- min BFGS
  
 BFGS: reverting to earlier configuration
 
                           -------------------------------
                                      Unit Cell
                           -------------------------------
        Real Lattice(A)              Reciprocal Lattice(1/A)
   7.2253415  -4.1715528   0.0000000        0.8696039   0.0000000  -0.0000000
  -0.0000000   8.3431057   0.0000000        0.4348020   0.7530991  -0.0000000
   0.0000000   0.0000000  10.0020486       -0.0000000  -0.0000000   0.6281898
 
                       Lattice parameters(A)       Cell Angles
                    a =    8.343106          alpha =   90.000000
                    b =    8.343106          beta  =   90.000000
                    c =   10.002049          gamma =  120.000000
 
                Current cell volume =  602.941369 A**3
 
                           -------------------------------
                                     Cell Contents
                           -------------------------------
 
            xxxxxxxxxxxxxxxxxxxxxxxxxxxxxxxxxxxxxxxxxxxxxxxxxxxxxxxxxxxx
            x  Element    Atom        Fractional coordinates of atoms  x
            x            Number           u          v          w      x
            x----------------------------------------------------------x
            x  C            1         2.493952   2.335329  -0.500000   x
            x  C            2        -2.335329   0.158623  -0.500000   x
            x  C            3        -0.158623  -2.493952  -0.500000   x
            x  C            4        -2.493952  -2.335329  -0.500000   x
            x  C            5         2.335329  -0.158623  -0.500000   x
            x  C            6         0.158623   2.493952  -0.500000   x
            x  C            7         2.335329   2.493952   0.500000   x
            x  C            8         0.158623  -2.335329   0.500000   x
            x  C            9        -2.493952  -0.158623   0.500000   x
            x  C           10        -2.335329  -2.493952   0.500000   x
            x  C           11        -0.158623   2.335329   0.500000   x
            x  C           12         2.493952   0.158623   0.500000   x
            x  N            1         2.330386   2.330386  -0.500000   x
            x  N            2        -2.330386   0.000000  -0.500000   x
            x  N            3        -0.000000  -2.330386  -0.500000   x
            x  N            4        -2.330386  -2.330386  -0.500000   x
            x  N            5         2.330386  -0.000000  -0.500000   x
            x  N            6         0.000000   2.330386  -0.500000   x
            xxxxxxxxxxxxxxxxxxxxxxxxxxxxxxxxxxxxxxxxxxxxxxxxxxxxxxxxxxxx
 
 
 BFGS: finished iteration     2 with enthalpy= -3.47052246E+003 eV
  
 +-----------+-----------------+-----------------+------------+-----+ <-- BFGS
 | Parameter |      value      |    tolerance    |    units   | OK? | <-- BFGS
 +-----------+-----------------+-----------------+------------+-----+ <-- BFGS
 |  dE/ion   |   1.007655E-005 |   2.000000E-005 |         eV | Yes | <-- BFGS
 |  |F|max   |   2.508518E-002 |   5.000000E-002 |       eV/A | Yes | <-- BFGS
 |  |dR|max  |   4.033797E-004 |   2.000000E-003 |          A | Yes | <-- BFGS
 |   Smax    |   1.190331E-001 |   1.000000E-001 |        GPa | No  | <-- BFGS
 +-----------+-----------------+-----------------+------------+-----+ <-- BFGS
  

================================================================================
 Starting BFGS iteration          3 ...
================================================================================
  
 +------------+-------------+-------------+-----------------+ <-- min BFGS
 |    Step    |   lambda    |   F.delta'  |    enthalpy     | <-- min BFGS
 +------------+-------------+-------------+-----------------+ <-- min BFGS
 |  previous  |    0.000000 |    0.031403 |    -3470.522463 | <-- min BFGS
 +------------+-------------+-------------+-----------------+ <-- min BFGS
  

--------------------------------------------------------------------------------
 BFGS: starting iteration         3 with trial guess (lambda=  1.000000)
--------------------------------------------------------------------------------
 
                           -------------------------------
                                      Unit Cell
                           -------------------------------
        Real Lattice(A)              Reciprocal Lattice(1/A)
   7.2276149  -4.1728654   0.0000000        0.8693304   0.0000000  -0.0000000
  -0.0000000   8.3457308   0.0000000        0.4346652   0.7528622  -0.0000000
   0.0000000   0.0000000  10.0022378       -0.0000000  -0.0000000   0.6281780
 
                       Lattice parameters(A)       Cell Angles
                    a =    8.345731          alpha =   90.000000
                    b =    8.345731          beta  =   90.000000
                    c =   10.002238          gamma =  120.000000
 
                Current cell volume =  603.332260 A**3
 
                           -------------------------------
                                     Cell Contents
                           -------------------------------
 
            xxxxxxxxxxxxxxxxxxxxxxxxxxxxxxxxxxxxxxxxxxxxxxxxxxxxxxxxxxxx
            x  Element    Atom        Fractional coordinates of atoms  x
            x            Number           u          v          w      x
            x----------------------------------------------------------x
            x  C            1         2.493951   2.335287  -0.500000   x
            x  C            2        -2.335287   0.158664  -0.500000   x
            x  C            3        -0.158664  -2.493951  -0.500000   x
            x  C            4        -2.493951  -2.335287  -0.500000   x
            x  C            5         2.335287  -0.158664  -0.500000   x
            x  C            6         0.158664   2.493951  -0.500000   x
            x  C            7         2.335287   2.493951   0.500000   x
            x  C            8         0.158664  -2.335287   0.500000   x
            x  C            9        -2.493951  -0.158664   0.500000   x
            x  C           10        -2.335287  -2.493951   0.500000   x
            x  C           11        -0.158664   2.335287   0.500000   x
            x  C           12         2.493951   0.158664   0.500000   x
            x  N            1         2.330501   2.330501  -0.500000   x
            x  N            2        -2.330501   0.000000  -0.500000   x
            x  N            3        -0.000000  -2.330501  -0.500000   x
            x  N            4        -2.330501  -2.330501  -0.500000   x
            x  N            5         2.330501  -0.000000  -0.500000   x
            x  N            6         0.000000   2.330501  -0.500000   x
            xxxxxxxxxxxxxxxxxxxxxxxxxxxxxxxxxxxxxxxxxxxxxxxxxxxxxxxxxxxx
 
 
------------------------------------------------------------------------ <-- SCF
SCF loop      Energy                           Energy gain       Timer   <-- SCF
                                               per atom          (sec)   <-- SCF
------------------------------------------------------------------------ <-- SCF
Initial  -3.47052201E+003                                        307.68  <-- SCF
      1  -3.47053034E+003                    4.62529935E-004     312.49  <-- SCF
      2  -3.47053047E+003                    7.57104631E-006     318.21  <-- SCF
      3  -3.47052898E+003                   -8.28831794E-005     324.15  <-- SCF
      4  -3.47052879E+003                   -1.09458965E-005     329.15  <-- SCF
      5  -3.47052875E+003                   -1.93353264E-006     333.26  <-- SCF
      6  -3.47052871E+003                   -2.16240319E-006     337.41  <-- SCF
      7  -3.47052872E+003                    4.73666107E-007     341.66  <-- SCF
      8  -3.47052873E+003                    7.04715010E-007     345.79  <-- SCF
------------------------------------------------------------------------ <-- SCF
 
Final energy =  -3470.528732974     eV
(energy not corrected for finite basis set)
 
 
 *********************************** Forces ***********************************
 *                                                                            *
 *                        Cartesian components (eV/A)                         *
 * -------------------------------------------------------------------------- *
 *                   x                    y                    z              *
 *                                                                            *
 * C         1      0.01063              0.01840             -0.00000         *
 * C         2     -0.02125              0.00001              0.00000         *
 * C         3      0.01062             -0.01841             -0.00000         *
 * C         4     -0.01063             -0.01840              0.00000         *
 * C         5      0.02125             -0.00001             -0.00000         *
 * C         6     -0.01062              0.01841             -0.00000         *
 * C         7      0.02125              0.00001             -0.00000         *
 * C         8     -0.01062             -0.01841              0.00000         *
 * C         9     -0.01063              0.01840             -0.00000         *
 * C        10     -0.02125             -0.00001              0.00000         *
 * C        11      0.01062              0.01841             -0.00000         *
 * C        12      0.01063             -0.01840              0.00000         *
 * N         1      0.02615              0.01510             -0.00000         *
 * N         2     -0.02615              0.01510              0.00000         *
 * N         3      0.00000             -0.03019              0.00000         *
 * N         4     -0.02615             -0.01510              0.00000         *
 * N         5      0.02615             -0.01510             -0.00000         *
 * N         6      0.00000              0.03019             -0.00000         *
 *                                                                            *
 ******************************************************************************
 
 ***************** Stress Tensor *****************
 *                                               *
 *          Cartesian components (GPa)           *
 * --------------------------------------------- *
 *             x             y             z     *
 *                                               *
 *  x     -0.072742      0.000000     -0.000000  *
 *  y      0.000000     -0.072742     -0.000000  *
 *  z     -0.000000     -0.000000     -0.007193  *
 *                                               *
 *  Pressure:    0.0509                          *
 *                                               *
 *************************************************
  
 +------------+-------------+-------------+-----------------+ <-- min BFGS
 |    Step    |   lambda    |   F.delta'  |    enthalpy     | <-- min BFGS
 +------------+-------------+-------------+-----------------+ <-- min BFGS
 |  previous  |    0.000000 |    0.031403 |    -3470.522463 | <-- min BFGS
 | trial step |    1.000000 |    0.017207 |    -3470.528781 | <-- min BFGS
 +------------+-------------+-------------+-----------------+ <-- min BFGS
  

--------------------------------------------------------------------------------
 BFGS: improving iteration         3 with line minimization (lambda=  2.212100)
--------------------------------------------------------------------------------
 
+---------------- MEMORY AND SCRATCH DISK ESTIMATES PER PROCESS --------------+
|                                                     Memory          Disk    |
| Model and support data                               68.0 MB         0.0 MB |
| Electronic energy minimisation requirements          41.9 MB         0.0 MB |
| Geometry minimisation requirements                   50.6 MB         0.0 MB |
|                                               ----------------------------- |
| Approx. total storage required per process          160.5 MB         0.0 MB |
|                                                                             |
| Requirements will fluctuate during execution and may exceed these estimates |
+-----------------------------------------------------------------------------+
 
 
                           -------------------------------
                                      Unit Cell
                           -------------------------------
        Real Lattice(A)              Reciprocal Lattice(1/A)
   7.2303705  -4.1744563   0.0000000        0.8689991   0.0000000  -0.0000000
  -0.0000000   8.3489127   0.0000000        0.4344995   0.7525753  -0.0000000
   0.0000000   0.0000000  10.0024670       -0.0000000  -0.0000000   0.6281636
 
                       Lattice parameters(A)       Cell Angles
                    a =    8.348913          alpha =   90.000000
                    b =    8.348913          beta  =   90.000000
                    c =   10.002467          gamma =  120.000000
 
                Current cell volume =  603.806239 A**3
 
                           -------------------------------
                                     Cell Contents
                           -------------------------------
 
            xxxxxxxxxxxxxxxxxxxxxxxxxxxxxxxxxxxxxxxxxxxxxxxxxxxxxxxxxxxx
            x  Element    Atom        Fractional coordinates of atoms  x
            x            Number           u          v          w      x
            x----------------------------------------------------------x
            x  C            1         2.493950   2.335237  -0.500000   x
            x  C            2        -2.335237   0.158714  -0.500000   x
            x  C            3        -0.158714  -2.493950  -0.500000   x
            x  C            4        -2.493950  -2.335237  -0.500000   x
            x  C            5         2.335237  -0.158714  -0.500000   x
            x  C            6         0.158714   2.493950  -0.500000   x
            x  C            7         2.335237   2.493950   0.500000   x
            x  C            8         0.158714  -2.335237   0.500000   x
            x  C            9        -2.493950  -0.158714   0.500000   x
            x  C           10        -2.335237  -2.493950   0.500000   x
            x  C           11        -0.158714   2.335237   0.500000   x
            x  C           12         2.493950   0.158714   0.500000   x
            x  N            1         2.330639   2.330639  -0.500000   x
            x  N            2        -2.330639   0.000000  -0.500000   x
            x  N            3        -0.000000  -2.330639  -0.500000   x
            x  N            4        -2.330639  -2.330639  -0.500000   x
            x  N            5         2.330639  -0.000000  -0.500000   x
            x  N            6         0.000000   2.330639  -0.500000   x
            xxxxxxxxxxxxxxxxxxxxxxxxxxxxxxxxxxxxxxxxxxxxxxxxxxxxxxxxxxxx
 
 
------------------------------------------------------------------------ <-- SCF
SCF loop      Energy                           Energy gain       Timer   <-- SCF
                                               per atom          (sec)   <-- SCF
------------------------------------------------------------------------ <-- SCF
Initial  -3.47051885E+003                                        350.96  <-- SCF
      1  -3.47053121E+003                    6.86925937E-004     355.62  <-- SCF
      2  -3.47053143E+003                    1.20860977E-005     361.83  <-- SCF
      3  -3.47052919E+003                   -1.24495856E-004     367.99  <-- SCF
      4  -3.47052888E+003                   -1.69899936E-005     373.37  <-- SCF
      5  -3.47052882E+003                   -3.45104319E-006     377.44  <-- SCF
      6  -3.47052876E+003                   -3.18361284E-006     381.52  <-- SCF
      7  -3.47052877E+003                    4.43281688E-007     385.54  <-- SCF
      8  -3.47052879E+003                    8.47210593E-007     389.60  <-- SCF
------------------------------------------------------------------------ <-- SCF
 
Final energy =  -3470.528787599     eV
(energy not corrected for finite basis set)
 
 
 *********************************** Forces ***********************************
 *                                                                            *
 *                        Cartesian components (eV/A)                         *
 * -------------------------------------------------------------------------- *
 *                   x                    y                    z              *
[...]
            x  C            7         2.335296   2.493990   0.500000   x
            x  C            8         0.158694  -2.335296   0.500000   x
            x  C            9        -2.493990  -0.158694   0.500000   x
            x  C           10        -2.335296  -2.493990   0.500000   x
            x  C           11        -0.158694   2.335296   0.500000   x
            x  C           12         2.493990   0.158694   0.500000   x
            x  N            1         2.330678   2.330678  -0.500000   x
            x  N            2        -2.330678   0.000000  -0.500000   x
            x  N            3        -0.000000  -2.330678  -0.500000   x
            x  N            4        -2.330678  -2.330678  -0.500000   x
            x  N            5         2.330678  -0.000000  -0.500000   x
            x  N            6         0.000000   2.330678  -0.500000   x
            xxxxxxxxxxxxxxxxxxxxxxxxxxxxxxxxxxxxxxxxxxxxxxxxxxxxxxxxxxxx
 
 
------------------------------------------------------------------------ <-- SCF
SCF loop      Energy                           Energy gain       Timer   <-- SCF
                                               per atom          (sec)   <-- SCF
------------------------------------------------------------------------ <-- SCF
Initial  -3.47052668E+003                                        394.74  <-- SCF
      1  -3.47053024E+003                    1.97355412E-004     399.47  <-- SCF
      2  -3.47053031E+003                    4.05066464E-006     404.31  <-- SCF
      3  -3.47052924E+003                   -5.92786474E-005     410.05  <-- SCF
      4  -3.47052908E+003                   -8.94035063E-006     415.29  <-- SCF
      5  -3.47052907E+003                   -5.32807037E-007     419.33  <-- SCF
      6  -3.47052906E+003                   -6.14158770E-007     423.43  <-- SCF
------------------------------------------------------------------------ <-- SCF
 
Final energy =  -3470.529060889     eV
(energy not corrected for finite basis set)
 
 
 *********************************** Forces ***********************************
 *                                                                            *
 *                        Cartesian components (eV/A)                         *
 * -------------------------------------------------------------------------- *
 *                   x                    y                    z              *
 *                                                                            *
 * C         1      0.01377              0.02815             -0.00000         *
 * C         2     -0.03127             -0.00216              0.00000         *
 * C         3      0.01750             -0.02600             -0.00000         *
 * C         4     -0.01377             -0.02815              0.00000         *
 * C         5      0.03127              0.00216             -0.00000         *
 * C         6     -0.01750              0.02600              0.00000         *
 * C         7      0.03127             -0.00216             -0.00000         *
 * C         8     -0.01750             -0.02600              0.00000         *
 * C         9     -0.01377              0.02815             -0.00000         *
 * C        10     -0.03127              0.00216              0.00000         *
 * C        11      0.01750              0.02600             -0.00000         *
 * C        12      0.01377             -0.02815              0.00000         *
 * N         1      0.01883              0.01087             -0.00000         *
 * N         2     -0.01883              0.01087              0.00000         *
 * N         3      0.00000             -0.02175              0.00000         *
 * N         4     -0.01883             -0.01087              0.00000         *
 * N         5      0.01883             -0.01087             -0.00000         *
 * N         6      0.00000              0.02175             -0.00000         *
 *                                                                            *
 ******************************************************************************
 
 ***************** Stress Tensor *****************
 *                                               *
 *          Cartesian components (GPa)           *
 * --------------------------------------------- *
 *             x             y             z     *
 *                                               *
 *  x      0.008581     -0.000000      0.000000  *
 *  y     -0.000000      0.008581      0.000000  *
 *  z      0.000000      0.000000     -0.007841  *
 *                                               *
 *  Pressure:   -0.0031                          *
 *                                               *
 *************************************************
  
 +------------+-------------+-------------+-----------------+ <-- min BFGS
 |    Step    |   lambda    |   F.delta'  |    enthalpy     | <-- min BFGS
 +------------+-------------+-------------+-----------------+ <-- min BFGS
 |  previous  |    0.000000 |    0.043635 |    -3470.528781 | <-- min BFGS
 | trial step |    1.000000 |    0.024351 |    -3470.529057 | <-- min BFGS
 +------------+-------------+-------------+-----------------+ <-- min BFGS
  
 BFGS: finished iteration     4 with enthalpy= -3.47052906E+003 eV
  
 +-----------+-----------------+-----------------+------------+-----+ <-- BFGS
 | Parameter |      value      |    tolerance    |    units   | OK? | <-- BFGS
 +-----------+-----------------+-----------------+------------+-----+ <-- BFGS
 |  dE/ion   |   1.534593E-005 |   2.000000E-005 |         eV | Yes | <-- BFGS
 |  |F|max   |   3.133983E-002 |   5.000000E-002 |       eV/A | Yes | <-- BFGS
 |  |dR|max  |   4.408168E-004 |   2.000000E-003 |          A | Yes | <-- BFGS
 |   Smax    |   8.580946E-003 |   1.000000E-001 |        GPa | Yes | <-- BFGS
 +-----------+-----------------+-----------------+------------+-----+ <-- BFGS
  
 BFGS: Geometry optimization completed successfully.

================================================================================
 BFGS: Final Configuration:
================================================================================
 
                           -------------------------------
                                      Unit Cell
                           -------------------------------
        Real Lattice(A)              Reciprocal Lattice(1/A)
   7.2312545  -4.1749667   0.0000000        0.8688929   0.0000000  -0.0000000
  -0.0000000   8.3499334   0.0000000        0.4344464   0.7524833  -0.0000000
   0.0000000   0.0000000  10.0025668       -0.0000000  -0.0000000   0.6281573
 
                       Lattice parameters(A)       Cell Angles
                    a =    8.349933          alpha =   90.000000
                    b =    8.349933          beta  =   90.000000
                    c =   10.002567          gamma =  120.000000
 
                Current cell volume =  603.959918 A**3
 
                           -------------------------------
                                     Cell Contents
                           -------------------------------
 
            xxxxxxxxxxxxxxxxxxxxxxxxxxxxxxxxxxxxxxxxxxxxxxxxxxxxxxxxxxxx
            x  Element    Atom        Fractional coordinates of atoms  x
            x            Number           u          v          w      x
            x----------------------------------------------------------x
            x  C            1         2.493990   2.335296  -0.500000   x
            x  C            2        -2.335296   0.158694  -0.500000   x
            x  C            3        -0.158694  -2.493990  -0.500000   x
            x  C            4        -2.493990  -2.335296  -0.500000   x
            x  C            5         2.335296  -0.158694  -0.500000   x
            x  C            6         0.158694   2.493990  -0.500000   x
            x  C            7         2.335296   2.493990   0.500000   x
            x  C            8         0.158694  -2.335296   0.500000   x
            x  C            9        -2.493990  -0.158694   0.500000   x
            x  C           10        -2.335296  -2.493990   0.500000   x
            x  C           11        -0.158694   2.335296   0.500000   x
            x  C           12         2.493990   0.158694   0.500000   x
            x  N            1         2.330678   2.330678  -0.500000   x
            x  N            2        -2.330678   0.000000  -0.500000   x
            x  N            3        -0.000000  -2.330678  -0.500000   x
            x  N            4        -2.330678  -2.330678  -0.500000   x
            x  N            5         2.330678  -0.000000  -0.500000   x
            x  N            6         0.000000   2.330678  -0.500000   x
            xxxxxxxxxxxxxxxxxxxxxxxxxxxxxxxxxxxxxxxxxxxxxxxxxxxxxxxxxxxx
 
 
 BFGS: Final Enthalpy     = -3.47052906E+003 eV
 BFGS: Final <frequency>  unchanged from initial value
 BFGS: Final bulk modulus =     119.97361 GPa
 
 ***************************** Symmetrised Forces *****************************
 *                                                                            *
 *                        Cartesian components (eV/A)                         *
 * -------------------------------------------------------------------------- *
 *                   x                    y                    z              *
 *                                                                            *
 * C         1      0.01377              0.02815             -0.00000         *
 * C         2     -0.03127             -0.00216              0.00000         *
 * C         3      0.01750             -0.02600             -0.00000         *
 * C         4     -0.01377             -0.02815              0.00000         *
 * C         5      0.03127              0.00216             -0.00000         *
 * C         6     -0.01750              0.02600              0.00000         *
 * C         7      0.03127             -0.00216             -0.00000         *
 * C         8     -0.01750             -0.02600              0.00000         *
 * C         9     -0.01377              0.02815             -0.00000         *
 * C        10     -0.03127              0.00216              0.00000         *
 * C        11      0.01750              0.02600             -0.00000         *
 * C        12      0.01377             -0.02815              0.00000         *
 * N         1      0.01883              0.01087             -0.00000         *
 * N         2     -0.01883              0.01087              0.00000         *
 * N         3      0.00000             -0.02175              0.00000         *
 * N         4     -0.01883             -0.01087              0.00000         *
 * N         5      0.01883             -0.01087             -0.00000         *
 * N         6      0.00000              0.02175             -0.00000         *
 *                                                                            *
 ******************************************************************************
 
 *********** Symmetrised Stress Tensor ***********
 *                                               *
 *          Cartesian components (GPa)           *
 * --------------------------------------------- *
 *             x             y             z     *
 *                                               *
 *  x      0.008581     -0.000000      0.000000  *
 *  y     -0.000000      0.008581      0.000000  *
 *  z      0.000000      0.000000     -0.007841  *
 *                                               *
 *  Pressure:   -0.0031                          *
 *                                               *
 *************************************************
 
 Pseudo atomic calculation performed for C 2s2 2p2
 
 Converged in 17 iterations to a total energy of -145.7151 eV
 
 
 Pseudo atomic calculation performed for N 2s2 2p3
 
 Converged in 21 iterations to a total energy of -261.3593 eV
 
Charge spilling parameter for spin component 1 = 1.36%
 
     Atomic Populations (Mulliken)
     -----------------------------
Species   Ion     s      p      d      f     Total  Charge (e)
==============================================================
  C        1     1.00   2.84   0.00   0.00   3.83     0.17
  C        2     1.00   2.84   0.00   0.00   3.83     0.17
  C        3     1.00   2.84   0.00   0.00   3.83     0.17
  C        4     1.00   2.84   0.00   0.00   3.83     0.17
  C        5     1.00   2.84   0.00   0.00   3.83     0.17
  C        6     1.00   2.84   0.00   0.00   3.83     0.17
  C        7     1.00   2.84   0.00   0.00   3.83     0.17
  C        8     1.00   2.84   0.00   0.00   3.83     0.17
  C        9     1.00   2.84   0.00   0.00   3.83     0.17
  C       10     1.00   2.84   0.00   0.00   3.83     0.17
  C       11     1.00   2.84   0.00   0.00   3.83     0.17
  C       12     1.00   2.84   0.00   0.00   3.83     0.17
  N        1     1.56   3.78   0.00   0.00   5.33    -0.33
  N        2     1.56   3.78   0.00   0.00   5.33    -0.33
  N        3     1.56   3.78   0.00   0.00   5.33    -0.33
  N        4     1.56   3.78   0.00   0.00   5.33    -0.33
  N        5     1.56   3.78   0.00   0.00   5.33    -0.33
  N        6     1.56   3.78   0.00   0.00   5.33    -0.33
==============================================================
 
            Bond              Population      Length (A)
============================================================
         C 10 -- N 4               1.01        1.34478
         C 6  -- N 6               1.01        1.34478
         C 11 -- N 6               1.01        1.34478
         C 4  -- N 4               1.01        1.34478
         C 1  -- N 1               1.01        1.34478
         C 12 -- N 5               1.01        1.34478
         C 9  -- N 2               1.01        1.34478
         C 7  -- N 1               1.01        1.34478
         C 3  -- N 3               1.01        1.34478
         C 8  -- N 3               1.01        1.34478
         C 5  -- N 5               1.01        1.34478
         C 2  -- N 2               1.01        1.34478
         C 6  -- C 8               1.07        1.42545
         C 3  -- C 11              1.07        1.42545
         C 4  -- C 7               1.07        1.42545
         C 5  -- C 9               1.07        1.42545
         C 2  -- C 12              1.07        1.42545
         C 1  -- C 10              1.07        1.42545
         C 2  -- C 11              0.85        1.47462
         C 6  -- C 7               0.85        1.47462
         C 5  -- C 8               0.85        1.47462
         C 1  -- C 12              0.85        1.47462
         C 3  -- C 10              0.85        1.47462
         C 4  -- C 9               0.85        1.47462
         C 4  -- C 10             -0.27        2.29511
         C 1  -- C 7              -0.27        2.29511
         C 6  -- C 11             -0.27        2.29511
         C 5  -- C 12             -0.27        2.29511
         C 3  -- C 8              -0.27        2.29511
         C 2  -- C 9              -0.27        2.29511
         C 8  -- N 6              -0.15        2.41642
         C 12 -- N 2              -0.15        2.41642
         C 9  -- N 5              -0.15        2.41642
         C 6  -- N 3              -0.15        2.41642
         C 3  -- N 6              -0.15        2.41642
         C 10 -- N 1              -0.15        2.41642
         C 7  -- N 4              -0.15        2.41642
         C 5  -- N 2              -0.15        2.41642
         C 2  -- N 5              -0.15        2.41642
         C 11 -- N 3              -0.15        2.41642
         C 4  -- N 1              -0.15        2.41642
         C 1  -- N 4              -0.15        2.41642
         C 10 -- N 3              -0.19        2.42488
         C 7  -- N 6              -0.19        2.42488
         C 5  -- N 3              -0.19        2.42488
         C 2  -- N 6              -0.19        2.42488
         C 12 -- N 1              -0.19        2.42488
         C 11 -- N 2              -0.19        2.42488
         C 6  -- N 1              -0.19        2.42488
         C 3  -- N 4              -0.19        2.42488
         C 1  -- N 5              -0.19        2.42488
         C 9  -- N 4              -0.19        2.42488
         C 8  -- N 5              -0.19        2.42488
         C 4  -- N 2              -0.19        2.42488
         C 2  -- C 3              -0.20        2.51165
         C 5  -- C 6              -0.20        2.51165
         C 7  -- C 8              -0.20        2.51165
         C 11 -- C 12             -0.20        2.51165
         C 8  -- C 9              -0.20        2.51165
         C 4  -- C 6              -0.20        2.51165
         C 1  -- C 3              -0.20        2.51165
         C 10 -- C 12             -0.20        2.51165
         C 7  -- C 9              -0.20        2.51165
         C 1  -- C 2              -0.20        2.51165
         C 4  -- C 5              -0.20        2.51165
         C 10 -- C 11             -0.20        2.51165
         C 1  -- C 4              -0.16        2.70174
         C 8  -- C 11             -0.16        2.70174
         C 9  -- C 12             -0.16        2.70174
         C 7  -- C 10             -0.16        2.70174
         C 2  -- C 5              -0.16        2.70174
         C 3  -- C 6              -0.16        2.70174
          N 3 -- N 4              -0.04        2.76114
          N 1 -- N 5              -0.04        2.76114
          N 3 -- N 5              -0.04        2.76114
          N 2 -- N 6              -0.04        2.76114
          N 1 -- N 6              -0.04        2.76114
          N 2 -- N 4              -0.04        2.76114
          N 3 -- N 6              -0.05        2.82765
          N 1 -- N 4              -0.05        2.82765
          N 2 -- N 5              -0.05        2.82765
         C 5  -- C 7              -0.05        2.90007
         C 2  -- C 10             -0.05        2.90007
         C 3  -- C 12             -0.05        2.90007
         C 6  -- C 9              -0.05        2.90007
         C 4  -- C 8              -0.05        2.90007
         C 1  -- C 11             -0.05        2.90007
============================================================
 
 
     Hirshfeld Analysis
     ------------------
Species   Ion     Hirshfeld Charge (e)  Spin (hbar/2)
===================================================
  C        1                 0.05        0.00
  C        2                 0.05        0.00
  C        3                 0.05        0.00
  C        4                 0.05        0.00
  C        5                 0.05        0.00
  C        6                 0.05        0.00
  C        7                 0.05        0.00
  C        8                 0.05        0.00
  C        9                 0.05        0.00
  C       10                 0.05        0.00
  C       11                 0.05        0.00
  C       12                 0.05        0.00
  N        1                -0.11        0.00
  N        2                -0.11        0.00
  N        3                -0.11        0.00
  N        4                -0.11        0.00
  N        5                -0.11        0.00
  N        6                -0.11        0.00
===================================================
 

Writing analysis data to NHG.castep_bin

Writing model to NHG.check
 
 A BibTeX formatted list of references used in this run has been written to 
 NHG.bib
 
Initialisation time =      0.50 s
Calculation time    =    427.15 s
Finalisation time   =      1.36 s
Total time          =    429.00 s
  
Overall parallel efficiency rating: Satisfactory (68%)                          
  
Data was distributed by:-
G-vector (2-way); efficiency rating: Satisfactory (68%)                         
k-point (2-way); efficiency rating: Ideal (100%)                                
  
Parallel notes:
1) Calculation only took 427.8 s, so efficiency estimates may be inaccurate.    
