 vasp.5.4.4.18Apr17-6-g9f103f2a35 (build Apr 27 2022 17:52:45) complex          
  
 executed on             LinuxIFC date 2022.06.17  19:17:52
 running on   96 total cores
 distrk:  each k-point on   96 cores,    1 groups
 distr:  one band on NCORES_PER_BAND=   8 cores,   12 groups


--------------------------------------------------------------------------------------------------------


 INCAR:
 POTCAR:    PAW_PBE Cu 22Jun2005                  
 POTCAR:    PAW_PBE Cu 22Jun2005                  
   VRHFIN =Cu: d10 p1                                                           
   LEXCH  = PE                                                                  
   EATOM  =  1390.9808 eV,  102.2342 Ry                                         
                                                                                
   TITEL  = PAW_PBE Cu 22Jun2005                                                
   LULTRA =        F    use ultrasoft PP ?                                      
   IUNSCR =        1    unscreen: 0-lin 1-nonlin 2-no                           
   RPACOR =    2.000    partial core radius                                     
   POMASS =   63.546; ZVAL   =   11.000    mass and valenz                      
   RCORE  =    2.300    outmost cutoff radius                                   
   RWIGS  =    2.200; RWIGS  =    1.164    wigner-seitz radius (au A)           
   ENMAX  =  295.446; ENMIN  =  221.585 eV                                      
   ICORE  =        3    local potential                                         
   LCOR   =        T    correct aug charges                                     
   LPAW   =        T    paw PP                                                  
   EAUG   =  586.980                                                            
   DEXC   =    0.000                                                            
   RMAX   =    2.344    core radius for proj-oper                               
   RAUG   =    1.300    factor for augmentation sphere                          
   RDEP   =    2.302    radius for radial grids                                 
   RDEPT  =    1.771    core radius for aug-charge                              
                                                                                
   Atomic configuration                                                         
    9 entries                                                                   
     n  l   j            E        occ.                                          
     1  0  0.50     -8850.2468   2.0000                                         
     2  0  0.50     -1062.3498   2.0000                                         
     2  1  1.50      -916.8226   6.0000                                         
     3  0  0.50      -114.6929   2.0000                                         
     3  1  1.50       -72.1325   6.0000                                         
     3  2  2.50        -5.0394  10.0000                                         
     4  0  0.50        -4.6097   1.0000                                         
     4  1  0.50        -4.0817   0.0000                                         
     4  3  2.50        -1.3606   0.0000                                         
   Description                                                                  
     l       E           TYP  RCUT    TYP  RCUT                                 
     2     -5.0393973     23  2.200                                             
     2     10.8846608     23  2.200                                             
     0     -4.6097109     23  2.200                                             
     0      8.2520465     23  2.200                                             
     1     -2.7211652     23  2.200                                             
     1     21.7055443     23  2.200                                             
     3      2.7211652     23  2.300                                             
  local pseudopotential read in
  partial core-charges read in
  partial kinetic energy density read in
  atomic valenz-charges read in
  non local Contribution for L=           2  read in
    real space projection operators read in
  non local Contribution for L=           2  read in
    real space projection operators read in
  non local Contribution for L=           0  read in
    real space projection operators read in
  non local Contribution for L=           0  read in
    real space projection operators read in
  non local Contribution for L=           1  read in
    real space projection operators read in
  non local Contribution for L=           1  read in
    real space projection operators read in
    PAW grid and wavefunctions read in
 
   number of l-projection  operators is LMAX  =           6
   number of lm-projection operators is LMMAX =          18
 

 ----------------------------------------------------------------------------- 
|                                                                             |
|  ADVICE TO THIS USER RUNNING 'VASP/VAMP'   (HEAR YOUR MASTER'S VOICE ...):  |
|                                                                             |
|      You have a (more or less) 'small supercell' and for smaller cells      |
|      it is recommended  to use the reciprocal-space projection scheme!      |
|      The real space optimization is not  efficient for small cells and it   |
|      is also less accurate ...                                              |
|      Therefore set LREAL=.FALSE. in the  INCAR file                         |
|                                                                             |
 ----------------------------------------------------------------------------- 

 Optimization of the real space projectors (new method)

 maximal supplied QI-value         = 16.25
 optimisation between [QCUT,QGAM] = [ 12.51, 25.03] = [ 43.85,175.40] Ry 
 Optimized for a Real-space Cutoff    1.39 Angstroem

   l    n(q)    QCUT    max X(q) W(low)/X(q) W(high)/X(q)  e(spline) 
   2      9    12.514     4.610    0.10E-03    0.14E-03    0.43E-06
   2      9    12.514     8.522    0.16E-03    0.23E-03    0.74E-06
   0     10    12.514    51.609    0.65E-04    0.60E-04    0.49E-06
   0     10    12.514    27.747    0.58E-04    0.56E-04    0.46E-06
   1     10    12.514    20.408    0.12E-03    0.71E-04    0.18E-06
   1     10    12.514    13.425    0.11E-03    0.64E-04    0.16E-06
  PAW_PBE Cu 22Jun2005                  :
 energy of atom  1       EATOM=-1390.9808
 kinetic energy error for atom=    0.0033 (will be added to EATOM!!)
 
 
 POSCAR: Cu.01.atoms2/POSCAR.7                   
  positions in direct lattice
  No initial velocities read in
 exchange correlation table for  LEXCH =        8
   RHO(1)=    0.500       N(1)  =     2000
   RHO(2)=  100.500       N(2)  =     4000

 VTST: version 3.2, (02/03/18)

 CHAIN: initializing optimizer
 
 OPT: Using VASP Dynamics algorithm
 CHAIN: Read ICHAIN            0
 
 POSCAR: Cu.01.atoms2/POSCAR.7                   
  positions in direct lattice
  No initial velocities read in
 


--------------------------------------------------------------------------------------------------------


 ion  position               nearest neighbor table
   1  0.000  0.000  0.000-   2 2.63   2 2.63   2 2.73   2 2.73
   2  0.500  0.500  0.500-   1 2.63   1 2.63   1 2.73   1 2.73
 
  LATTYP: Found a triclinic cell.
 ALAT       =     4.5126066686
 B/A-ratio  =     0.6395378603
 C/A-ratio  =     1.5542469639
 COS(alpha) =     0.0034906025
 COS(beta)  =     0.6264221821
 COS(gamma) =     0.6865177674
  
  Lattice vectors:
  
 A1 = (  -3.9139713056,   2.1801852438,   0.5396664408)
 A2 = (  -0.7582369901,   2.7798607276,  -0.1623200584)
 A3 = (  -6.3983059306,  -1.8482224412,  -2.1995035476)


Analysis of symmetry for initial positions (statically):
=====================================================================
 Subroutine PRICEL returns following result:
 
  LATTYP: Found a triclinic cell.
 ALAT       =     2.7341835724
 B/A-ratio  =     1.5480903464
 C/A-ratio  =     2.0278738545
 COS(alpha) =     0.0072833282
 COS(beta)  =     0.6194510895
 COS(gamma) =     0.7432224726
  
  Lattice vectors:
  
 A1 = (  -1.2421673125,  -2.0142038425,  -1.3695849942)
 A2 = (  -2.3974973254,  -3.3795362114,   0.8643065576)
 A3 = (  -2.0872416022,   0.1167854115,  -5.1353815986)
 
   2 primitive cells build up your supercell.
 

 Routine SETGRP: Setting up the symmetry group for a 
 triclinic supercell.


 Subroutine GETGRP returns: Found  2 space group operations
 (whereof  2 operations were pure point group operations)
 out of a pool of  2 trial point group operations.


The static configuration has the point symmetry S_2 .


Analysis of symmetry for dynamics (positions and initial velocities):
=====================================================================
 Subroutine PRICEL returns following result:
 
  LATTYP: Found a triclinic cell.
 ALAT       =     2.7341835724
 B/A-ratio  =     1.5480903464
 C/A-ratio  =     2.0278738545
 COS(alpha) =     0.0072833282
 COS(beta)  =     0.6194510895
 COS(gamma) =     0.7432224726
  
  Lattice vectors:
  
 A1 = (  -1.2421673125,  -2.0142038425,  -1.3695849942)
 A2 = (  -2.3974973254,  -3.3795362114,   0.8643065576)
 A3 = (  -2.0872416022,   0.1167854115,  -5.1353815986)
 
   2 primitive cells build up your supercell.
 

 Routine SETGRP: Setting up the symmetry group for a 
 triclinic supercell.


 Subroutine GETGRP returns: Found  2 space group operations
 (whereof  2 operations were pure point group operations)
 out of a pool of  2 trial point group operations.


The dynamic configuration has the point symmetry S_2 .


 Subroutine INISYM returns: Found  2 space group operations
 (whereof  2 operations are pure point group operations),
 and found     2 'primitive' translations

 
 

Automatic generation of k-mesh.
 generate k-points for:   10   11    9
Space group operators:
 irot       det(A)        alpha          n_x          n_y          n_z        tau_x        tau_y        tau_z
    1     1.000000     0.000001     1.000000     0.000000     0.000000     0.000000     0.000000     0.000000
    2    -1.000000     0.000001     1.000000     0.000000     0.000000     0.000000     0.000000     0.000000
 
 Subroutine IBZKPT returns following result:
 ===========================================
 
 Found    496 irreducible k-points:
 
 Following reciprocal coordinates:
            Coordinates               Weight
  0.000000  0.000000  0.000000      1.000000
  0.100000 -0.000000 -0.000000      2.000000
  0.200000 -0.000000  0.000000      2.000000
  0.300000 -0.000000  0.000000      2.000000
  0.400000 -0.000000  0.000000      2.000000
  0.500000 -0.000000  0.000000      1.000000
 -0.000000  0.090909 -0.000000      2.000000
  0.100000  0.090909 -0.000000      2.000000
  0.200000  0.090909  0.000000      2.000000
  0.300000  0.090909  0.000000      2.000000
  0.400000  0.090909  0.000000      2.000000
  0.500000  0.090909  0.000000      2.000000
 -0.400000  0.090909 -0.000000      2.000000
 -0.300000  0.090909  0.000000      2.000000
 -0.200000  0.090909  0.000000      2.000000
 -0.100000  0.090909 -0.000000      2.000000
 -0.000000  0.181818 -0.000000      2.000000
  0.100000  0.181818 -0.000000      2.000000
  0.200000  0.181818  0.000000      2.000000
  0.300000  0.181818 -0.000000      2.000000
  0.400000  0.181818  0.000000      2.000000
  0.500000  0.181818  0.000000      2.000000
 -0.400000  0.181818 -0.000000      2.000000
 -0.300000  0.181818  0.000000      2.000000
 -0.200000  0.181818  0.000000      2.000000
 -0.100000  0.181818  0.000000      2.000000
 -0.000000  0.272727  0.000000      2.000000
  0.100000  0.272727  0.000000      2.000000
  0.200000  0.272727  0.000000      2.000000
  0.300000  0.272727  0.000000      2.000000
  0.400000  0.272727  0.000000      2.000000
  0.500000  0.272727  0.000000      2.000000
 -0.400000  0.272727  0.000000      2.000000
 -0.300000  0.272727  0.000000      2.000000
 -0.200000  0.272727 -0.000000      2.000000
 -0.100000  0.272727  0.000000      2.000000
 -0.000000  0.363636 -0.000000      2.000000
  0.100000  0.363636  0.000000      2.000000
  0.200000  0.363636  0.000000      2.000000
  0.300000  0.363636  0.000000      2.000000
  0.400000  0.363636  0.000000      2.000000
  0.500000  0.363636  0.000000      2.000000
 -0.400000  0.363636  0.000000      2.000000
 -0.300000  0.363636  0.000000      2.000000
 -0.200000  0.363636  0.000000      2.000000
 -0.100000  0.363636 -0.000000      2.000000
 -0.000000  0.454545  0.000000      2.000000
  0.100000  0.454545  0.000000      2.000000
  0.200000  0.454545  0.000000      2.000000
  0.300000  0.454545  0.000000      2.000000
  0.400000  0.454545  0.000000      2.000000
  0.500000  0.454545  0.000000      2.000000
 -0.400000  0.454545  0.000000      2.000000
 -0.300000  0.454545  0.000000      2.000000
 -0.200000  0.454545 -0.000000      2.000000
 -0.100000  0.454545  0.000000      2.000000
  0.000000 -0.000000  0.111111      2.000000
  0.100000 -0.000000  0.111111      2.000000
  0.200000 -0.000000  0.111111      2.000000
  0.300000 -0.000000  0.111111      2.000000
  0.400000  0.000000  0.111111      2.000000
  0.500000  0.000000  0.111111      2.000000
 -0.400000  0.000000  0.111111      2.000000
 -0.300000  0.000000  0.111111      2.000000
 -0.200000  0.000000  0.111111      2.000000
 -0.100000  0.000000  0.111111      2.000000
  0.000000  0.090909  0.111111      2.000000
  0.100000  0.090909  0.111111      2.000000
  0.200000  0.090909  0.111111      2.000000
  0.300000  0.090909  0.111111      2.000000
  0.400000  0.090909  0.111111      2.000000
  0.500000  0.090909  0.111111      2.000000
 -0.400000  0.090909  0.111111      2.000000
 -0.300000  0.090909  0.111111      2.000000
 -0.200000  0.090909  0.111111      2.000000
 -0.100000  0.090909  0.111111      2.000000
 -0.000000  0.181818  0.111111      2.000000
  0.100000  0.181818  0.111111      2.000000
  0.200000  0.181818  0.111111      2.000000
  0.300000  0.181818  0.111111      2.000000
  0.400000  0.181818  0.111111      2.000000
  0.500000  0.181818  0.111111      2.000000
 -0.400000  0.181818  0.111111      2.000000
 -0.300000  0.181818  0.111111      2.000000
 -0.200000  0.181818  0.111111      2.000000
 -0.100000  0.181818  0.111111      2.000000
 -0.000000  0.272727  0.111111      2.000000
  0.100000  0.272727  0.111111      2.000000
  0.200000  0.272727  0.111111      2.000000
  0.300000  0.272727  0.111111      2.000000
  0.400000  0.272727  0.111111      2.000000
  0.500000  0.272727  0.111111      2.000000
 -0.400000  0.272727  0.111111      2.000000
 -0.300000  0.272727  0.111111      2.000000
 -0.200000  0.272727  0.111111      2.000000
 -0.100000  0.272727  0.111111      2.000000
 -0.000000  0.363636  0.111111      2.000000
  0.100000  0.363636  0.111111      2.000000
  0.200000  0.363636  0.111111      2.000000
  0.300000  0.363636  0.111111      2.000000
  0.400000  0.363636  0.111111      2.000000
  0.500000  0.363636  0.111111      2.000000
 -0.400000  0.363636  0.111111      2.000000
 -0.300000  0.363636  0.111111      2.000000
 -0.200000  0.363636  0.111111      2.000000
 -0.100000  0.363636  0.111111      2.000000
 -0.000000  0.454545  0.111111      2.000000
  0.100000  0.454545  0.111111      2.000000
  0.200000  0.454545  0.111111      2.000000
  0.300000  0.454545  0.111111      2.000000
  0.400000  0.454545  0.111111      2.000000
  0.500000  0.454545  0.111111      2.000000
 -0.400000  0.454545  0.111111      2.000000
 -0.300000  0.454545  0.111111      2.000000
 -0.200000  0.454545  0.111111      2.000000
 -0.100000  0.454545  0.111111      2.000000
  0.000000 -0.454545  0.111111      2.000000
  0.100000 -0.454545  0.111111      2.000000
  0.200000 -0.454545  0.111111      2.000000
  0.300000 -0.454545  0.111111      2.000000
  0.400000 -0.454545  0.111111      2.000000
  0.500000 -0.454545  0.111111      2.000000
 -0.400000 -0.454545  0.111111      2.000000
 -0.300000 -0.454545  0.111111      2.000000
 -0.200000 -0.454545  0.111111      2.000000
 -0.100000 -0.454545  0.111111      2.000000
  0.000000 -0.363636  0.111111      2.000000
  0.100000 -0.363636  0.111111      2.000000
  0.200000 -0.363636  0.111111      2.000000
  0.300000 -0.363636  0.111111      2.000000
  0.400000 -0.363636  0.111111      2.000000
  0.500000 -0.363636  0.111111      2.000000
 -0.400000 -0.363636  0.111111      2.000000
 -0.300000 -0.363636  0.111111      2.000000
 -0.200000 -0.363636  0.111111      2.000000
 -0.100000 -0.363636  0.111111      2.000000
  0.000000 -0.272727  0.111111      2.000000
  0.100000 -0.272727  0.111111      2.000000
  0.200000 -0.272727  0.111111      2.000000
  0.300000 -0.272727  0.111111      2.000000
  0.400000 -0.272727  0.111111      2.000000
  0.500000 -0.272727  0.111111      2.000000
 -0.400000 -0.272727  0.111111      2.000000
 -0.300000 -0.272727  0.111111      2.000000
 -0.200000 -0.272727  0.111111      2.000000
 -0.100000 -0.272727  0.111111      2.000000
  0.000000 -0.181818  0.111111      2.000000
  0.100000 -0.181818  0.111111      2.000000
  0.200000 -0.181818  0.111111      2.000000
  0.300000 -0.181818  0.111111      2.000000
  0.400000 -0.181818  0.111111      2.000000
  0.500000 -0.181818  0.111111      2.000000
 -0.400000 -0.181818  0.111111      2.000000
 -0.300000 -0.181818  0.111111      2.000000
 -0.200000 -0.181818  0.111111      2.000000
 -0.100000 -0.181818  0.111111      2.000000
  0.000000 -0.090909  0.111111      2.000000
  0.100000 -0.090909  0.111111      2.000000
  0.200000 -0.090909  0.111111      2.000000
  0.300000 -0.090909  0.111111      2.000000
  0.400000 -0.090909  0.111111      2.000000
  0.500000 -0.090909  0.111111      2.000000
 -0.400000 -0.090909  0.111111      2.000000
 -0.300000 -0.090909  0.111111      2.000000
 -0.200000 -0.090909  0.111111      2.000000
 -0.100000 -0.090909  0.111111      2.000000
  0.000000 -0.000000  0.222222      2.000000
  0.100000 -0.000000  0.222222      2.000000
  0.200000 -0.000000  0.222222      2.000000
  0.300000 -0.000000  0.222222      2.000000
  0.400000 -0.000000  0.222222      2.000000
  0.500000 -0.000000  0.222222      2.000000
 -0.400000  0.000000  0.222222      2.000000
 -0.300000 -0.000000  0.222222      2.000000
 -0.200000  0.000000  0.222222      2.000000
 -0.100000  0.000000  0.222222      2.000000
  0.000000  0.090909  0.222222      2.000000
  0.100000  0.090909  0.222222      2.000000
  0.200000  0.090909  0.222222      2.000000
  0.300000  0.090909  0.222222      2.000000
  0.400000  0.090909  0.222222      2.000000
  0.500000  0.090909  0.222222      2.000000
 -0.400000  0.090909  0.222222      2.000000
 -0.300000  0.090909  0.222222      2.000000
 -0.200000  0.090909  0.222222      2.000000
 -0.100000  0.090909  0.222222      2.000000
  0.000000  0.181818  0.222222      2.000000
  0.100000  0.181818  0.222222      2.000000
  0.200000  0.181818  0.222222      2.000000
  0.300000  0.181818  0.222222      2.000000
  0.400000  0.181818  0.222222      2.000000
  0.500000  0.181818  0.222222      2.000000
 -0.400000  0.181818  0.222222      2.000000
 -0.300000  0.181818  0.222222      2.000000
 -0.200000  0.181818  0.222222      2.000000
 -0.100000  0.181818  0.222222      2.000000
  0.000000  0.272727  0.222222      2.000000
  0.100000  0.272727  0.222222      2.000000
  0.200000  0.272727  0.222222      2.000000
  0.300000  0.272727  0.222222      2.000000
  0.400000  0.272727  0.222222      2.000000
  0.500000  0.272727  0.222222      2.000000
 -0.400000  0.272727  0.222222      2.000000
 -0.300000  0.272727  0.222222      2.000000
 -0.200000  0.272727  0.222222      2.000000
 -0.100000  0.272727  0.222222      2.000000
 -0.000000  0.363636  0.222222      2.000000
  0.100000  0.363636  0.222222      2.000000
  0.200000  0.363636  0.222222      2.000000
  0.300000  0.363636  0.222222      2.000000
  0.400000  0.363636  0.222222      2.000000
  0.500000  0.363636  0.222222      2.000000
 -0.400000  0.363636  0.222222      2.000000
 -0.300000  0.363636  0.222222      2.000000
 -0.200000  0.363636  0.222222      2.000000
 -0.100000  0.363636  0.222222      2.000000
 -0.000000  0.454545  0.222222      2.000000
  0.100000  0.454545  0.222222      2.000000
  0.200000  0.454545  0.222222      2.000000
  0.300000  0.454545  0.222222      2.000000
  0.400000  0.454545  0.222222      2.000000
  0.500000  0.454545  0.222222      2.000000
 -0.400000  0.454545  0.222222      2.000000
 -0.300000  0.454545  0.222222      2.000000
 -0.200000  0.454545  0.222222      2.000000
 -0.100000  0.454545  0.222222      2.000000
  0.000000 -0.454545  0.222222      2.000000
  0.100000 -0.454545  0.222222      2.000000
  0.200000 -0.454545  0.222222      2.000000
  0.300000 -0.454545  0.222222      2.000000
  0.400000 -0.454545  0.222222      2.000000
  0.500000 -0.454545  0.222222      2.000000
 -0.400000 -0.454545  0.222222      2.000000
 -0.300000 -0.454545  0.222222      2.000000
 -0.200000 -0.454545  0.222222      2.000000
 -0.100000 -0.454545  0.222222      2.000000
  0.000000 -0.363636  0.222222      2.000000
  0.100000 -0.363636  0.222222      2.000000
  0.200000 -0.363636  0.222222      2.000000
  0.300000 -0.363636  0.222222      2.000000
  0.400000 -0.363636  0.222222      2.000000
  0.500000 -0.363636  0.222222      2.000000
 -0.400000 -0.363636  0.222222      2.000000
 -0.300000 -0.363636  0.222222      2.000000
 -0.200000 -0.363636  0.222222      2.000000
 -0.100000 -0.363636  0.222222      2.000000
  0.000000 -0.272727  0.222222      2.000000
  0.100000 -0.272727  0.222222      2.000000
  0.200000 -0.272727  0.222222      2.000000
  0.300000 -0.272727  0.222222      2.000000
  0.400000 -0.272727  0.222222      2.000000
  0.500000 -0.272727  0.222222      2.000000
 -0.400000 -0.272727  0.222222      2.000000
 -0.300000 -0.272727  0.222222      2.000000
 -0.200000 -0.272727  0.222222      2.000000
 -0.100000 -0.272727  0.222222      2.000000
  0.000000 -0.181818  0.222222      2.000000
  0.100000 -0.181818  0.222222      2.000000
  0.200000 -0.181818  0.222222      2.000000
  0.300000 -0.181818  0.222222      2.000000
  0.400000 -0.181818  0.222222      2.000000
  0.500000 -0.181818  0.222222      2.000000
 -0.400000 -0.181818  0.222222      2.000000
 -0.300000 -0.181818  0.222222      2.000000
 -0.200000 -0.181818  0.222222      2.000000
 -0.100000 -0.181818  0.222222      2.000000
  0.000000 -0.090909  0.222222      2.000000
  0.100000 -0.090909  0.222222      2.000000
  0.200000 -0.090909  0.222222      2.000000
  0.300000 -0.090909  0.222222      2.000000
  0.400000 -0.090909  0.222222      2.000000
  0.500000 -0.090909  0.222222      2.000000
 -0.400000 -0.090909  0.222222      2.000000
 -0.300000 -0.090909  0.222222      2.000000
 -0.200000 -0.090909  0.222222      2.000000
 -0.100000 -0.090909  0.222222      2.000000
  0.000000  0.000000  0.333333      2.000000
  0.100000  0.000000  0.333333      2.000000
  0.200000 -0.000000  0.333333      2.000000
  0.300000 -0.000000  0.333333      2.000000
  0.400000 -0.000000  0.333333      2.000000
  0.500000 -0.000000  0.333333      2.000000
 -0.400000  0.000000  0.333333      2.000000
 -0.300000  0.000000  0.333333      2.000000
 -0.200000  0.000000  0.333333      2.000000
 -0.100000  0.000000  0.333333      2.000000
  0.000000  0.090909  0.333333      2.000000
  0.100000  0.090909  0.333333      2.000000
  0.200000  0.090909  0.333333      2.000000
  0.300000  0.090909  0.333333      2.000000
  0.400000  0.090909  0.333333      2.000000
  0.500000  0.090909  0.333333      2.000000
 -0.400000  0.090909  0.333333      2.000000
 -0.300000  0.090909  0.333333      2.000000
 -0.200000  0.090909  0.333333      2.000000
 -0.100000  0.090909  0.333333      2.000000
  0.000000  0.181818  0.333333      2.000000
  0.100000  0.181818  0.333333      2.000000
  0.200000  0.181818  0.333333      2.000000
  0.300000  0.181818  0.333333      2.000000
  0.400000  0.181818  0.333333      2.000000
  0.500000  0.181818  0.333333      2.000000
 -0.400000  0.181818  0.333333      2.000000
 -0.300000  0.181818  0.333333      2.000000
 -0.200000  0.181818  0.333333      2.000000
 -0.100000  0.181818  0.333333      2.000000
  0.000000  0.272727  0.333333      2.000000
  0.100000  0.272727  0.333333      2.000000
  0.200000  0.272727  0.333333      2.000000
  0.300000  0.272727  0.333333      2.000000
  0.400000  0.272727  0.333333      2.000000
  0.500000  0.272727  0.333333      2.000000
 -0.400000  0.272727  0.333333      2.000000
 -0.300000  0.272727  0.333333      2.000000
 -0.200000  0.272727  0.333333      2.000000
 -0.100000  0.272727  0.333333      2.000000
  0.000000  0.363636  0.333333      2.000000
  0.100000  0.363636  0.333333      2.000000
  0.200000  0.363636  0.333333      2.000000
  0.300000  0.363636  0.333333      2.000000
  0.400000  0.363636  0.333333      2.000000
  0.500000  0.363636  0.333333      2.000000
 -0.400000  0.363636  0.333333      2.000000
 -0.300000  0.363636  0.333333      2.000000
 -0.200000  0.363636  0.333333      2.000000
 -0.100000  0.363636  0.333333      2.000000
  0.000000  0.454545  0.333333      2.000000
  0.100000  0.454545  0.333333      2.000000
  0.200000  0.454545  0.333333      2.000000
  0.300000  0.454545  0.333333      2.000000
  0.400000  0.454545  0.333333      2.000000
  0.500000  0.454545  0.333333      2.000000
 -0.400000  0.454545  0.333333      2.000000
 -0.300000  0.454545  0.333333      2.000000
 -0.200000  0.454545  0.333333      2.000000
 -0.100000  0.454545  0.333333      2.000000
  0.000000 -0.454545  0.333333      2.000000
  0.100000 -0.454545  0.333333      2.000000
  0.200000 -0.454545  0.333333      2.000000
  0.300000 -0.454545  0.333333      2.000000
  0.400000 -0.454545  0.333333      2.000000
  0.500000 -0.454545  0.333333      2.000000
 -0.400000 -0.454545  0.333333      2.000000
 -0.300000 -0.454545  0.333333      2.000000
 -0.200000 -0.454545  0.333333      2.000000
 -0.100000 -0.454545  0.333333      2.000000
  0.000000 -0.363636  0.333333      2.000000
  0.100000 -0.363636  0.333333      2.000000
  0.200000 -0.363636  0.333333      2.000000
  0.300000 -0.363636  0.333333      2.000000
  0.400000 -0.363636  0.333333      2.000000
  0.500000 -0.363636  0.333333      2.000000
 -0.400000 -0.363636  0.333333      2.000000
 -0.300000 -0.363636  0.333333      2.000000
 -0.200000 -0.363636  0.333333      2.000000
 -0.100000 -0.363636  0.333333      2.000000
  0.000000 -0.272727  0.333333      2.000000
  0.100000 -0.272727  0.333333      2.000000
  0.200000 -0.272727  0.333333      2.000000
  0.300000 -0.272727  0.333333      2.000000
  0.400000 -0.272727  0.333333      2.000000
  0.500000 -0.272727  0.333333      2.000000
 -0.400000 -0.272727  0.333333      2.000000
 -0.300000 -0.272727  0.333333      2.000000
 -0.200000 -0.272727  0.333333      2.000000
 -0.100000 -0.272727  0.333333      2.000000
  0.000000 -0.181818  0.333333      2.000000
  0.100000 -0.181818  0.333333      2.000000
  0.200000 -0.181818  0.333333      2.000000
  0.300000 -0.181818  0.333333      2.000000
  0.400000 -0.181818  0.333333      2.000000
  0.500000 -0.181818  0.333333      2.000000
 -0.400000 -0.181818  0.333333      2.000000
 -0.300000 -0.181818  0.333333      2.000000
 -0.200000 -0.181818  0.333333      2.000000
 -0.100000 -0.181818  0.333333      2.000000
  0.000000 -0.090909  0.333333      2.000000
  0.100000 -0.090909  0.333333      2.000000
  0.200000 -0.090909  0.333333      2.000000
  0.300000 -0.090909  0.333333      2.000000
  0.400000 -0.090909  0.333333      2.000000
  0.500000 -0.090909  0.333333      2.000000
 -0.400000 -0.090909  0.333333      2.000000
 -0.300000 -0.090909  0.333333      2.000000
 -0.200000 -0.090909  0.333333      2.000000
 -0.100000 -0.090909  0.333333      2.000000
  0.000000 -0.000000  0.444444      2.000000
  0.100000 -0.000000  0.444444      2.000000
  0.200000  0.000000  0.444444      2.000000
  0.300000  0.000000  0.444444      2.000000
  0.400000 -0.000000  0.444444      2.000000
  0.500000 -0.000000  0.444444      2.000000
 -0.400000  0.000000  0.444444      2.000000
 -0.300000  0.000000  0.444444      2.000000
 -0.200000  0.000000  0.444444      2.000000
 -0.100000  0.000000  0.444444      2.000000
  0.000000  0.090909  0.444444      2.000000
  0.100000  0.090909  0.444444      2.000000
  0.200000  0.090909  0.444444      2.000000
  0.300000  0.090909  0.444444      2.000000
  0.400000  0.090909  0.444444      2.000000
  0.500000  0.090909  0.444444      2.000000
 -0.400000  0.090909  0.444444      2.000000
 -0.300000  0.090909  0.444444      2.000000
 -0.200000  0.090909  0.444444      2.000000
 -0.100000  0.090909  0.444444      2.000000
  0.000000  0.181818  0.444444      2.000000
  0.100000  0.181818  0.444444      2.000000
  0.200000  0.181818  0.444444      2.000000
  0.300000  0.181818  0.444444      2.000000
  0.400000  0.181818  0.444444      2.000000
  0.500000  0.181818  0.444444      2.000000
 -0.400000  0.181818  0.444444      2.000000
 -0.300000  0.181818  0.444444      2.000000
 -0.200000  0.181818  0.444444      2.000000
 -0.100000  0.181818  0.444444      2.000000
  0.000000  0.272727  0.444444      2.000000
  0.100000  0.272727  0.444444      2.000000
  0.200000  0.272727  0.444444      2.000000
  0.300000  0.272727  0.444444      2.000000
  0.400000  0.272727  0.444444      2.000000
  0.500000  0.272727  0.444444      2.000000
 -0.400000  0.272727  0.444444      2.000000
 -0.300000  0.272727  0.444444      2.000000
 -0.200000  0.272727  0.444444      2.000000
 -0.100000  0.272727  0.444444      2.000000
  0.000000  0.363636  0.444444      2.000000
  0.100000  0.363636  0.444444      2.000000
  0.200000  0.363636  0.444444      2.000000
  0.300000  0.363636  0.444444      2.000000
  0.400000  0.363636  0.444444      2.000000
  0.500000  0.363636  0.444444      2.000000
 -0.400000  0.363636  0.444444      2.000000
 -0.300000  0.363636  0.444444      2.000000
 -0.200000  0.363636  0.444444      2.000000
 -0.100000  0.363636  0.444444      2.000000
  0.000000  0.454545  0.444444      2.000000
  0.100000  0.454545  0.444444      2.000000
  0.200000  0.454545  0.444444      2.000000
  0.300000  0.454545  0.444444      2.000000
  0.400000  0.454545  0.444444      2.000000
  0.500000  0.454545  0.444444      2.000000
 -0.400000  0.454545  0.444444      2.000000
 -0.300000  0.454545  0.444444      2.000000
 -0.200000  0.454545  0.444444      2.000000
 -0.100000  0.454545  0.444444      2.000000
  0.000000 -0.454545  0.444444      2.000000
  0.100000 -0.454545  0.444444      2.000000
  0.200000 -0.454545  0.444444      2.000000
  0.300000 -0.454545  0.444444      2.000000
  0.400000 -0.454545  0.444444      2.000000
  0.500000 -0.454545  0.444444      2.000000
 -0.400000 -0.454545  0.444444      2.000000
 -0.300000 -0.454545  0.444444      2.000000
 -0.200000 -0.454545  0.444444      2.000000
 -0.100000 -0.454545  0.444444      2.000000
  0.000000 -0.363636  0.444444      2.000000
  0.100000 -0.363636  0.444444      2.000000
  0.200000 -0.363636  0.444444      2.000000
  0.300000 -0.363636  0.444444      2.000000
  0.400000 -0.363636  0.444444      2.000000
  0.500000 -0.363636  0.444444      2.000000
 -0.400000 -0.363636  0.444444      2.000000
 -0.300000 -0.363636  0.444444      2.000000
 -0.200000 -0.363636  0.444444      2.000000
 -0.100000 -0.363636  0.444444      2.000000
  0.000000 -0.272727  0.444444      2.000000
  0.100000 -0.272727  0.444444      2.000000
  0.200000 -0.272727  0.444444      2.000000
  0.300000 -0.272727  0.444444      2.000000
  0.400000 -0.272727  0.444444      2.000000
  0.500000 -0.272727  0.444444      2.000000
 -0.400000 -0.272727  0.444444      2.000000
 -0.300000 -0.272727  0.444444      2.000000
 -0.200000 -0.272727  0.444444      2.000000
 -0.100000 -0.272727  0.444444      2.000000
  0.000000 -0.181818  0.444444      2.000000
  0.100000 -0.181818  0.444444      2.000000
  0.200000 -0.181818  0.444444      2.000000
  0.300000 -0.181818  0.444444      2.000000
  0.400000 -0.181818  0.444444      2.000000
  0.500000 -0.181818  0.444444      2.000000
 -0.400000 -0.181818  0.444444      2.000000
 -0.300000 -0.181818  0.444444      2.000000
 -0.200000 -0.181818  0.444444      2.000000
 -0.100000 -0.181818  0.444444      2.000000
  0.000000 -0.090909  0.444444      2.000000
  0.100000 -0.090909  0.444444      2.000000
  0.200000 -0.090909  0.444444      2.000000
  0.300000 -0.090909  0.444444      2.000000
  0.400000 -0.090909  0.444444      2.000000
  0.500000 -0.090909  0.444444      2.000000
 -0.400000 -0.090909  0.444444      2.000000
 -0.300000 -0.090909  0.444444      2.000000
 -0.200000 -0.090909  0.444444      2.000000
 -0.100000 -0.090909  0.444444      2.000000
 
 Following cartesian coordinates:
            Coordinates               Weight
  0.000000  0.000000  0.000000      1.000000
  0.029695  0.007974 -0.002151      2.000000
  0.059389  0.015948 -0.004303      2.000000
  0.089084  0.023922 -0.006454      2.000000
  0.118778  0.031895 -0.008606      2.000000
  0.148473  0.039869 -0.010757      1.000000
 -0.006978  0.030489 -0.005322      2.000000
  0.022717  0.038463 -0.007473      2.000000
  0.052411  0.046437 -0.009625      2.000000
  0.082106  0.054410 -0.011776      2.000000
  0.111800  0.062384 -0.013928      2.000000
  0.141495  0.070358 -0.016079      2.000000
 -0.125756 -0.001407  0.003284      2.000000
 -0.096061  0.006567  0.001132      2.000000
 -0.066367  0.014541 -0.001019      2.000000
 -0.036672  0.022515 -0.003170      2.000000
 -0.013955  0.060978 -0.010644      2.000000
  0.015739  0.068951 -0.012795      2.000000
  0.045434  0.076925 -0.014947      2.000000
  0.075128  0.084899 -0.017098      2.000000
  0.104823  0.092873 -0.019250      2.000000
  0.134517  0.100847 -0.021401      2.000000
 -0.132733  0.029082 -0.002038      2.000000
 -0.103039  0.037056 -0.004190      2.000000
 -0.073344  0.045030 -0.006341      2.000000
 -0.043650  0.053004 -0.008492      2.000000
 -0.020933  0.091466 -0.015966      2.000000
  0.008762  0.099440 -0.018117      2.000000
  0.038456  0.107414 -0.020269      2.000000
  0.068151  0.115388 -0.022420      2.000000
  0.097845  0.123362 -0.024571      2.000000
  0.127540  0.131336 -0.026723      2.000000
 -0.139711  0.059571 -0.007360      2.000000
 -0.110016  0.067545 -0.009511      2.000000
 -0.080322  0.075519 -0.011663      2.000000
 -0.050627  0.083493 -0.013814      2.000000
 -0.027910  0.121955 -0.021288      2.000000
  0.001784  0.129929 -0.023439      2.000000
  0.031479  0.137903 -0.025591      2.000000
  0.061173  0.145877 -0.027742      2.000000
  0.090868  0.153851 -0.029893      2.000000
  0.120562  0.161825 -0.032045      2.000000
 -0.146688  0.090060 -0.012682      2.000000
 -0.116994  0.098034 -0.014833      2.000000
 -0.087299  0.106007 -0.016985      2.000000
 -0.057605  0.113981 -0.019136      2.000000
 -0.034888  0.152444 -0.026610      2.000000
 -0.005193  0.160418 -0.028761      2.000000
  0.024501  0.168392 -0.030912      2.000000
  0.054196  0.176366 -0.033064      2.000000
  0.083890  0.184339 -0.035215      2.000000
  0.113585  0.192313 -0.037367      2.000000
 -0.153666  0.120548 -0.018004      2.000000
 -0.123971  0.128522 -0.020155      2.000000
 -0.094277  0.136496 -0.022307      2.000000
 -0.064582  0.144470 -0.024458      2.000000
  0.006043  0.003405  0.030076      2.000000
  0.035738  0.011378  0.027924      2.000000
  0.065432  0.019352  0.025773      2.000000
  0.095127  0.027326  0.023621      2.000000
  0.124821  0.035300  0.021470      2.000000
  0.154516  0.043274  0.019319      2.000000
 -0.112735 -0.028491  0.038681      2.000000
 -0.083040 -0.020517  0.036530      2.000000
 -0.053346 -0.012543  0.034379      2.000000
 -0.023651 -0.004569  0.032227      2.000000
 -0.000934  0.033893  0.024754      2.000000
  0.028760  0.041867  0.022602      2.000000
  0.058455  0.049841  0.020451      2.000000
  0.088149  0.057815  0.018300      2.000000
  0.117844  0.065789  0.016148      2.000000
  0.147538  0.073763  0.013997      2.000000
 -0.119712  0.001998  0.033360      2.000000
 -0.090018  0.009972  0.031208      2.000000
 -0.060323  0.017946  0.029057      2.000000
 -0.030629  0.025919  0.026905      2.000000
 -0.007912  0.064382  0.019432      2.000000
  0.021783  0.072356  0.017280      2.000000
  0.051477  0.080330  0.015129      2.000000
  0.081172  0.088304  0.012978      2.000000
  0.110866  0.096278  0.010826      2.000000
  0.140561  0.104252  0.008675      2.000000
 -0.126690  0.032487  0.028038      2.000000
 -0.096995  0.040461  0.025886      2.000000
 -0.067301  0.048434  0.023735      2.000000
 -0.037606  0.056408  0.021583      2.000000
 -0.014889  0.094871  0.014110      2.000000
  0.014805  0.102845  0.011959      2.000000
  0.044500  0.110819  0.009807      2.000000
  0.074194  0.118793  0.007656      2.000000
  0.103889  0.126766  0.005504      2.000000
  0.133583  0.134740  0.003353      2.000000
 -0.133667  0.062975  0.022716      2.000000
 -0.103973  0.070949  0.020564      2.000000
 -0.074278  0.078923  0.018413      2.000000
 -0.044584  0.086897  0.016261      2.000000
 -0.021867  0.125360  0.008788      2.000000
  0.007828  0.133334  0.006637      2.000000
  0.037522  0.141307  0.004485      2.000000
  0.067217  0.149281  0.002334      2.000000
  0.096911  0.157255  0.000182      2.000000
  0.126606  0.165229 -0.001969      2.000000
 -0.140645  0.093464  0.017394      2.000000
 -0.110950  0.101438  0.015242      2.000000
 -0.081256  0.109412  0.013091      2.000000
 -0.051561  0.117386  0.010940      2.000000
 -0.028844  0.155849  0.003466      2.000000
  0.000850  0.163822  0.001315      2.000000
  0.030545  0.171796 -0.000837      2.000000
  0.060239  0.179770 -0.002988      2.000000
  0.089934  0.187744 -0.005140      2.000000
  0.119628  0.195718 -0.007291      2.000000
 -0.147622  0.123953  0.012072      2.000000
 -0.117928  0.131927  0.009920      2.000000
 -0.088233  0.139901  0.007769      2.000000
 -0.058539  0.147875  0.005618      2.000000
  0.040931 -0.149039  0.056685      2.000000
  0.070626 -0.141066  0.054534      2.000000
  0.100320 -0.133092  0.052382      2.000000
  0.130015 -0.125118  0.050231      2.000000
  0.159709 -0.117144  0.048080      2.000000
  0.189404 -0.109170  0.045928      2.000000
 -0.077847 -0.180935  0.065291      2.000000
 -0.048152 -0.172961  0.063140      2.000000
 -0.018458 -0.164987  0.060988      2.000000
  0.011237 -0.157013  0.058837      2.000000
  0.033954 -0.118551  0.051363      2.000000
  0.063648 -0.110577  0.049212      2.000000
  0.093343 -0.102603  0.047061      2.000000
  0.123037 -0.094629  0.044909      2.000000
  0.152732 -0.086655  0.042758      2.000000
  0.182426 -0.078681  0.040606      2.000000
 -0.084825 -0.150446  0.059969      2.000000
 -0.055130 -0.142472  0.057818      2.000000
 -0.025435 -0.134498  0.055666      2.000000
  0.004259 -0.126525  0.053515      2.000000
  0.026976 -0.088062  0.046041      2.000000
  0.056670 -0.080088  0.043890      2.000000
  0.086365 -0.072114  0.041739      2.000000
  0.116060 -0.064140  0.039587      2.000000
  0.145754 -0.056166  0.037436      2.000000
  0.175449 -0.048192  0.035284      2.000000
 -0.091802 -0.119957  0.054647      2.000000
 -0.062108 -0.111983  0.052496      2.000000
 -0.032413 -0.104010  0.050344      2.000000
 -0.002719 -0.096036  0.048193      2.000000
  0.019998 -0.057573  0.040720      2.000000
  0.049693 -0.049599  0.038568      2.000000
  0.079387 -0.041625  0.036417      2.000000
  0.109082 -0.033651  0.034265      2.000000
  0.138776 -0.025678  0.032114      2.000000
  0.168471 -0.017704  0.029962      2.000000
 -0.098780 -0.089469  0.049325      2.000000
 -0.069085 -0.081495  0.047174      2.000000
 -0.039391 -0.073521  0.045022      2.000000
 -0.009696 -0.065547  0.042871      2.000000
  0.013021 -0.027084  0.035398      2.000000
  0.042715 -0.019110  0.033246      2.000000
  0.072410 -0.011136  0.031095      2.000000
  0.102104 -0.003163  0.028943      2.000000
  0.131799  0.004811  0.026792      2.000000
  0.161493  0.012785  0.024641      2.000000
 -0.105757 -0.058980  0.044003      2.000000
 -0.076063 -0.051006  0.041852      2.000000
 -0.046368 -0.043032  0.039701      2.000000
 -0.016674 -0.035058  0.037549      2.000000
  0.012087  0.006809  0.060151      2.000000
  0.041781  0.014783  0.058000      2.000000
  0.071476  0.022757  0.055849      2.000000
  0.101170  0.030731  0.053697      2.000000
  0.130865  0.038705  0.051546      2.000000
  0.160559  0.046678  0.049394      2.000000
 -0.106691 -0.025086  0.068757      2.000000
 -0.076997 -0.017113  0.066606      2.000000
 -0.047302 -0.009139  0.064454      2.000000
 -0.017608 -0.001165  0.062303      2.000000
  0.005109  0.037298  0.054830      2.000000
  0.034804  0.045272  0.052678      2.000000
  0.064498  0.053246  0.050527      2.000000
  0.094193  0.061220  0.048375      2.000000
  0.123887  0.069193  0.046224      2.000000
  0.153582  0.077167  0.044072      2.000000
 -0.113669  0.005402  0.063435      2.000000
 -0.083974  0.013376  0.061284      2.000000
 -0.054280  0.021350  0.059132      2.000000
 -0.024585  0.029324  0.056981      2.000000
 -0.001868  0.067787  0.049508      2.000000
  0.027826  0.075761  0.047356      2.000000
  0.057521  0.083734  0.045205      2.000000
  0.087215  0.091708  0.043053      2.000000
  0.116910  0.099682  0.040902      2.000000
  0.146604  0.107656  0.038751      2.000000
 -0.120646  0.035891  0.058113      2.000000
 -0.090952  0.043865  0.055962      2.000000
 -0.061257  0.051839  0.053810      2.000000
 -0.031563  0.059813  0.051659      2.000000
 -0.008846  0.098275  0.044186      2.000000
  0.020849  0.106249  0.042034      2.000000
  0.050543  0.114223  0.039883      2.000000
  0.080238  0.122197  0.037731      2.000000
  0.109932  0.130171  0.035580      2.000000
  0.139627  0.138145  0.033429      2.000000
 -0.127624  0.066380  0.052791      2.000000
 -0.097930  0.074354  0.050640      2.000000
 -0.068235  0.082328  0.048489      2.000000
 -0.038541  0.090302  0.046337      2.000000
 -0.015824  0.128764  0.038864      2.000000
  0.013871  0.136738  0.036712      2.000000
  0.043565  0.144712  0.034561      2.000000
  0.073260  0.152686  0.032410      2.000000
  0.102955  0.160660  0.030258      2.000000
  0.132649  0.168634  0.028107      2.000000
 -0.134602  0.096869  0.047470      2.000000
 -0.104907  0.104843  0.045318      2.000000
 -0.075213  0.112817  0.043167      2.000000
 -0.045518  0.120790  0.041015      2.000000
 -0.022801  0.159253  0.033542      2.000000
  0.006893  0.167227  0.031390      2.000000
  0.036588  0.175201  0.029239      2.000000
  0.066282  0.183175  0.027088      2.000000
  0.095977  0.191149  0.024936      2.000000
  0.125671  0.199122  0.022785      2.000000
 -0.141579  0.127358  0.042148      2.000000
 -0.111885  0.135331  0.039996      2.000000
 -0.082190  0.143305  0.037845      2.000000
 -0.052496  0.151279  0.035693      2.000000
  0.046974 -0.145635  0.086761      2.000000
  0.076669 -0.137661  0.084610      2.000000
  0.106363 -0.129687  0.082458      2.000000
  0.136058 -0.121713  0.080307      2.000000
  0.165752 -0.113739  0.078155      2.000000
  0.195447 -0.105766  0.076004      2.000000
 -0.071804 -0.177530  0.095367      2.000000
 -0.042109 -0.169556  0.093215      2.000000
 -0.012415 -0.161583  0.091064      2.000000
  0.017280 -0.153609  0.088912      2.000000
  0.039997 -0.115146  0.081439      2.000000
  0.069691 -0.107172  0.079288      2.000000
  0.099386 -0.099198  0.077136      2.000000
  0.129080 -0.091224  0.074985      2.000000
  0.158775 -0.083251  0.072833      2.000000
  0.188469 -0.075277  0.070682      2.000000
 -0.078781 -0.147042  0.090045      2.000000
 -0.049087 -0.139068  0.087893      2.000000
 -0.019392 -0.131094  0.085742      2.000000
  0.010302 -0.123120  0.083591      2.000000
  0.033019 -0.084657  0.076117      2.000000
  0.062714 -0.076683  0.073966      2.000000
  0.092408 -0.068710  0.071814      2.000000
  0.122103 -0.060736  0.069663      2.000000
  0.151797 -0.052762  0.067512      2.000000
  0.181492 -0.044788  0.065360      2.000000
 -0.085759 -0.116553  0.084723      2.000000
 -0.056064 -0.108579  0.082571      2.000000
 -0.026370 -0.100605  0.080420      2.000000
  0.003325 -0.092631  0.078269      2.000000
  0.026042 -0.054168  0.070795      2.000000
  0.055736 -0.046195  0.068644      2.000000
  0.085431 -0.038221  0.066492      2.000000
  0.115125 -0.030247  0.064341      2.000000
  0.144820 -0.022273  0.062190      2.000000
  0.174514 -0.014299  0.060038      2.000000
 -0.092736 -0.086064  0.079401      2.000000
 -0.063042 -0.078090  0.077250      2.000000
 -0.033347 -0.070116  0.075098      2.000000
 -0.003653 -0.062142  0.072947      2.000000
  0.019064 -0.023680  0.065473      2.000000
  0.048759 -0.015706  0.063322      2.000000
  0.078453 -0.007732  0.061171      2.000000
  0.108148  0.000242  0.059019      2.000000
  0.137842  0.008216  0.056868      2.000000
  0.167537  0.016190  0.054716      2.000000
 -0.099714 -0.055575  0.074079      2.000000
 -0.070019 -0.047601  0.071928      2.000000
 -0.040325 -0.039627  0.069776      2.000000
 -0.010630 -0.031654  0.067625      2.000000
  0.018130  0.010214  0.090227      2.000000
  0.047824  0.018188  0.088076      2.000000
  0.077519  0.026161  0.085924      2.000000
  0.107214  0.034135  0.083773      2.000000
  0.136908  0.042109  0.081622      2.000000
  0.166603  0.050083  0.079470      2.000000
 -0.100648 -0.021682  0.098833      2.000000
 -0.070954 -0.013708  0.096681      2.000000
 -0.041259 -0.005734  0.094530      2.000000
 -0.011565  0.002240  0.092379      2.000000
  0.011152  0.040702  0.084905      2.000000
  0.040847  0.048676  0.082754      2.000000
  0.070541  0.056650  0.080602      2.000000
  0.100236  0.064624  0.078451      2.000000
  0.129930  0.072598  0.076300      2.000000
  0.159625  0.080572  0.074148      2.000000
 -0.107626  0.008807  0.093511      2.000000
 -0.077931  0.016781  0.091360      2.000000
 -0.048237  0.024755  0.089208      2.000000
 -0.018542  0.032729  0.087057      2.000000
  0.004175  0.071191  0.079583      2.000000
  0.033869  0.079165  0.077432      2.000000
  0.063564  0.087139  0.075281      2.000000
  0.093258  0.095113  0.073129      2.000000
  0.122953  0.103087  0.070978      2.000000
  0.152647  0.111061  0.068826      2.000000
 -0.114603  0.039296  0.088189      2.000000
 -0.084909  0.047270  0.086038      2.000000
 -0.055214  0.055243  0.083886      2.000000
 -0.025520  0.063217  0.081735      2.000000
 -0.002803  0.101680  0.074261      2.000000
  0.026892  0.109654  0.072110      2.000000
  0.056586  0.117628  0.069959      2.000000
  0.086281  0.125602  0.067807      2.000000
  0.115975  0.133576  0.065656      2.000000
  0.145670  0.141549  0.063504      2.000000
 -0.121581  0.069785  0.082867      2.000000
 -0.091886  0.077758  0.080716      2.000000
 -0.062192  0.085732  0.078564      2.000000
 -0.032497  0.093706  0.076413      2.000000
 -0.009780  0.132169  0.068940      2.000000
  0.019914  0.140143  0.066788      2.000000
  0.049609  0.148117  0.064637      2.000000
  0.079303  0.156090  0.062485      2.000000
  0.108998  0.164064  0.060334      2.000000
  0.138692  0.172038  0.058182      2.000000
 -0.128558  0.100273  0.077545      2.000000
 -0.098864  0.108247  0.075394      2.000000
 -0.069169  0.116221  0.073242      2.000000
 -0.039475  0.124195  0.071091      2.000000
 -0.016758  0.162658  0.063618      2.000000
  0.012937  0.170631  0.061466      2.000000
  0.042631  0.178605  0.059315      2.000000
  0.072326  0.186579  0.057163      2.000000
  0.102020  0.194553  0.055012      2.000000
  0.131715  0.202527  0.052861      2.000000
 -0.135536  0.130762  0.072223      2.000000
 -0.105841  0.138736  0.070072      2.000000
 -0.076147  0.146710  0.067920      2.000000
 -0.046452  0.154684  0.065769      2.000000
  0.053018 -0.142230  0.116837      2.000000
  0.082712 -0.134256  0.114685      2.000000
  0.112407 -0.126283  0.112534      2.000000
  0.142101 -0.118309  0.110383      2.000000
  0.171796 -0.110335  0.108231      2.000000
  0.201490 -0.102361  0.106080      2.000000
 -0.065760 -0.174126  0.125442      2.000000
 -0.036066 -0.166152  0.123291      2.000000
 -0.006371 -0.158178  0.121140      2.000000
  0.023323 -0.150204  0.118988      2.000000
  0.046040 -0.111742  0.111515      2.000000
  0.075735 -0.103768  0.109363      2.000000
  0.105429 -0.095794  0.107212      2.000000
  0.135124 -0.087820  0.105061      2.000000
  0.164818 -0.079846  0.102909      2.000000
  0.194513 -0.071872  0.100758      2.000000
 -0.072738 -0.143637  0.120121      2.000000
 -0.043043 -0.135663  0.117969      2.000000
 -0.013349 -0.127689  0.115818      2.000000
  0.016346 -0.119715  0.113666      2.000000
  0.039063 -0.081253  0.106193      2.000000
  0.068757 -0.073279  0.104042      2.000000
  0.098452 -0.065305  0.101890      2.000000
  0.128146 -0.057331  0.099739      2.000000
  0.157841 -0.049357  0.097587      2.000000
  0.187535 -0.041383  0.095436      2.000000
 -0.079715 -0.113148  0.114799      2.000000
 -0.050021 -0.105174  0.112647      2.000000
 -0.020326 -0.097200  0.110496      2.000000
  0.009368 -0.089227  0.108344      2.000000
  0.032085 -0.050764  0.100871      2.000000
  0.061780 -0.042790  0.098720      2.000000
  0.091474 -0.034816  0.096568      2.000000
  0.121169 -0.026842  0.094417      2.000000
  0.150863 -0.018868  0.092265      2.000000
  0.180558 -0.010895  0.090114      2.000000
 -0.086693 -0.082659  0.109477      2.000000
 -0.056998 -0.074686  0.107325      2.000000
 -0.027304 -0.066712  0.105174      2.000000
  0.002391 -0.058738  0.103022      2.000000
  0.025108 -0.020275  0.095549      2.000000
  0.054802 -0.012301  0.093398      2.000000
  0.084497 -0.004327  0.091246      2.000000
  0.114191  0.003646  0.089095      2.000000
  0.143886  0.011620  0.086943      2.000000
  0.173580  0.019594  0.084792      2.000000
 -0.093671 -0.052171  0.104155      2.000000
 -0.063976 -0.044197  0.102003      2.000000
 -0.034281 -0.036223  0.099852      2.000000
 -0.004587 -0.028249  0.097701      2.000000
  0.024173  0.013618  0.120303      2.000000
  0.053868  0.021592  0.118152      2.000000
  0.083562  0.029566  0.116000      2.000000
  0.113257  0.037540  0.113849      2.000000
  0.142951  0.045514  0.111697      2.000000
  0.172646  0.053488  0.109546      2.000000
 -0.094605 -0.018277  0.128909      2.000000
 -0.064910 -0.010303  0.126757      2.000000
 -0.035216 -0.002330  0.124606      2.000000
 -0.005521  0.005644  0.122454      2.000000
  0.017196  0.044107  0.114981      2.000000
  0.046890  0.052081  0.112830      2.000000
  0.076585  0.060055  0.110678      2.000000
  0.106279  0.068029  0.108527      2.000000
  0.135974  0.076002  0.106375      2.000000
  0.165668  0.083976  0.104224      2.000000
 -0.101582  0.012211  0.123587      2.000000
 -0.071888  0.020185  0.121435      2.000000
 -0.042193  0.028159  0.119284      2.000000
 -0.012499  0.036133  0.117132      2.000000
  0.010218  0.074596  0.109659      2.000000
  0.039913  0.082570  0.107508      2.000000
  0.069607  0.090544  0.105356      2.000000
  0.099302  0.098517  0.103205      2.000000
  0.128996  0.106491  0.101053      2.000000
  0.158691  0.114465  0.098902      2.000000
 -0.108560  0.042700  0.118265      2.000000
 -0.078865  0.050674  0.116113      2.000000
 -0.049171  0.058648  0.113962      2.000000
 -0.019476  0.066622  0.111811      2.000000
  0.003241  0.105085  0.104337      2.000000
  0.032935  0.113058  0.102186      2.000000
  0.062630  0.121032  0.100034      2.000000
  0.092324  0.129006  0.097883      2.000000
  0.122019  0.136980  0.095731      2.000000
  0.151713  0.144954  0.093580      2.000000
 -0.115537  0.073189  0.112943      2.000000
 -0.085843  0.081163  0.110791      2.000000
 -0.056148  0.089137  0.108640      2.000000
 -0.026454  0.097111  0.106489      2.000000
 -0.003737  0.135573  0.099015      2.000000
  0.025958  0.143547  0.096864      2.000000
  0.055652  0.151521  0.094712      2.000000
  0.085347  0.159495  0.092561      2.000000
  0.115041  0.167469  0.090410      2.000000
  0.144736  0.175443  0.088258      2.000000
 -0.122515  0.103678  0.107621      2.000000
 -0.092820  0.111652  0.105470      2.000000
 -0.063126  0.119626  0.103318      2.000000
 -0.033431  0.127599  0.101167      2.000000
 -0.010714  0.166062  0.093693      2.000000
  0.018980  0.174036  0.091542      2.000000
  0.048675  0.182010  0.089391      2.000000
  0.078369  0.189984  0.087239      2.000000
  0.108064  0.197958  0.085088      2.000000
  0.137758  0.205932  0.082936      2.000000
 -0.129492  0.134167  0.102299      2.000000
 -0.099798  0.142141  0.100148      2.000000
 -0.070103  0.150114  0.097996      2.000000
 -0.040409  0.158088  0.095845      2.000000
  0.059061 -0.138826  0.146913      2.000000
  0.088756 -0.130852  0.144761      2.000000
  0.118450 -0.122878  0.142610      2.000000
  0.148145 -0.114904  0.140458      2.000000
  0.177839 -0.106930  0.138307      2.000000
  0.207534 -0.098956  0.136155      2.000000
 -0.059717 -0.170721  0.155518      2.000000
 -0.030022 -0.162747  0.153367      2.000000
 -0.000328 -0.154774  0.151215      2.000000
  0.029367 -0.146800  0.149064      2.000000
  0.052084 -0.108337  0.141591      2.000000
  0.081778 -0.100363  0.139439      2.000000
  0.111473 -0.092389  0.137288      2.000000
  0.141167 -0.084415  0.135136      2.000000
  0.170862 -0.076441  0.132985      2.000000
  0.200556 -0.068468  0.130833      2.000000
 -0.066695 -0.140232  0.150196      2.000000
 -0.037000 -0.132259  0.148045      2.000000
 -0.007306 -0.124285  0.145893      2.000000
  0.022389 -0.116311  0.143742      2.000000
  0.045106 -0.077848  0.136269      2.000000
  0.074800 -0.069874  0.134117      2.000000
  0.104495 -0.061900  0.131966      2.000000
  0.134189 -0.053927  0.129814      2.000000
  0.163884 -0.045953  0.127663      2.000000
  0.193579 -0.037979  0.125512      2.000000
 -0.073672 -0.109744  0.144874      2.000000
 -0.043978 -0.101770  0.142723      2.000000
 -0.014283 -0.093796  0.140572      2.000000
  0.015411 -0.085822  0.138420      2.000000
  0.038128 -0.047359  0.130947      2.000000
  0.067823 -0.039386  0.128795      2.000000
  0.097517 -0.031412  0.126644      2.000000
  0.127212 -0.023438  0.124493      2.000000
  0.156906 -0.015464  0.122341      2.000000
  0.186601 -0.007490  0.120190      2.000000
 -0.080650 -0.079255  0.139552      2.000000
 -0.050955 -0.071281  0.137401      2.000000
 -0.021261 -0.063307  0.135250      2.000000
  0.008434 -0.055333  0.133098      2.000000
  0.031151 -0.016871  0.125625      2.000000
  0.060845 -0.008897  0.123473      2.000000
  0.090540 -0.000923  0.121322      2.000000
  0.120234  0.007051  0.119171      2.000000
  0.149929  0.015025  0.117019      2.000000
  0.179623  0.022999  0.114868      2.000000
 -0.087627 -0.048766  0.134231      2.000000
 -0.057933 -0.040792  0.132079      2.000000
 -0.028238 -0.032818  0.129928      2.000000
  0.001456 -0.024844  0.127776      2.000000
 


--------------------------------------------------------------------------------------------------------




 Dimension of arrays:
   k-points           NKPTS =    496   k-points in BZ     NKDIM =    496   number of bands    NBANDS=     24
   number of dos      NEDOS =    301   number of ions     NIONS =      2
   non local maximal  LDIM  =      6   non local SUM 2l+1 LMDIM =     18
   total plane-waves  NPLWV =  20160
   max r-space proj   IRMAX =   6650   max aug-charges    IRDMAX=  17328
   dimension x,y,z NGX =    28 NGY =   24 NGZ =   30
   dimension x,y,z NGXF=    56 NGYF=   48 NGZF=   60
   support grid    NGXF=    56 NGYF=   48 NGZF=   60
   ions per type =               2
   NGX,Y,Z   is equivalent  to a cutoff of  14.16, 13.83, 13.62 a.u.
   NGXF,Y,Z  is equivalent  to a cutoff of  28.31, 27.65, 27.24 a.u.

 SYSTEM =  Cu.01.atoms2/POSCAR.7, atoms=2          
 POSCAR =  Cu.01.atoms2/POSCAR.7                   

 Startparameter for this run:
   NWRITE =      2    write-flag & timer
   PREC   = accura    normal or accurate (medium, high low for compatibility)
   ISTART =      0    job   : 0-new  1-cont  2-samecut
   ICHARG =      2    charge: 1-file 2-atom 10-const
   ISPIN  =      1    spin polarized calculation?
   LNONCOLLINEAR =      F non collinear calculations
   LSORBIT =      F    spin-orbit coupling
   INIWAV =      1    electr: 0-lowe 1-rand  2-diag
   LASPH  =      F    aspherical Exc in radial PAW
   METAGGA=      F    non-selfconsistent MetaGGA calc.

 Electronic Relaxation 1
   ENCUT  =  600.0 eV  44.10 Ry    6.64 a.u.   6.57  5.76  7.31*2*pi/ulx,y,z
   ENINI  =  600.0     initial cutoff
   ENAUG  =  587.0 eV  augmentation charge cutoff
   NELM   =    120;   NELMIN=  2; NELMDL= -5     # of ELM steps 
   EDIFF  = 0.1E-05   stopping-criterion for ELM
   LREAL  =      T    real-space projection
   NLSPLINE    = F    spline interpolate recip. space projectors
   LCOMPAT=      F    compatible to vasp.4.4
   GGA_COMPAT  = T    GGA compatible to vasp.4.4-vasp.4.6
   LMAXPAW     = -100 max onsite density
   LMAXMIX     =    2 max onsite mixed and CHGCAR
   VOSKOWN=      0    Vosko Wilk Nusair interpolation
   ROPT   =   -0.00025
 Ionic relaxation
   EDIFFG = 0.1E-04   stopping-criterion for IOM
   NSW    =      1    number of steps for IOM
   NBLOCK =      1;   KBLOCK =      1    inner block; outer block 
   IBRION =     -1    ionic relax: 0-MD 1-quasi-New 2-CG
   NFREE  =      0    steps in history (QN), initial steepest desc. (CG)
   ISIF   =      2    stress and relaxation
   IWAVPR =     10    prediction:  0-non 1-charg 2-wave 3-comb
   ISYM   =      2    0-nonsym 1-usesym 2-fastsym
   LCORR  =      T    Harris-Foulkes like correction to forces

   POTIM  = 0.5000    time-step for ionic-motion
   TEIN   =    0.0    initial temperature
   TEBEG  =    0.0;   TEEND  =   0.0 temperature during run
   SMASS  =  -3.00    Nose mass-parameter (am)
   estimated Nose-frequenzy (Omega)   =  0.10E-29 period in steps =****** mass=  -0.247E-27a.u.
   SCALEE = 1.0000    scale energy and forces
   NPACO  =    256;   APACO  = 16.0  distance and # of slots for P.C.
   PSTRESS=    0.0 pullay stress

  Mass of Ions in am
   POMASS =  63.55
  Ionic Valenz
   ZVAL   =  11.00
  Atomic Wigner-Seitz radii
   RWIGS  =  -1.00
  virtual crystal weights 
   VCA    =   1.00
   NELECT =      22.0000    total number of electrons
   NUPDOWN=      -1.0000    fix difference up-down

 DOS related values:
   EMIN   =  10.00;   EMAX   =-10.00  energy-range for DOS
   EFERMI =   0.00
   ISMEAR =     0;   SIGMA  =   0.02  broadening in eV -4-tet -1-fermi 0-gaus

 Electronic relaxation 2 (details)
   IALGO  =     38    algorithm
   LDIAG  =      T    sub-space diagonalisation (order eigenvalues)
   LSUBROT=      F    optimize rotation matrix (better conditioning)
   TURBO    =      0    0=normal 1=particle mesh
   IRESTART =      0    0=no restart 2=restart with 2 vectors
   NREBOOT  =      0    no. of reboots
   NMIN     =      0    reboot dimension
   EREF     =   0.00    reference energy to select bands
   IMIX   =      4    mixing-type and parameters
     AMIX     =   0.40;   BMIX     =  1.00
     AMIX_MAG =   1.60;   BMIX_MAG =  1.00
     AMIN     =   0.10
     WC   =   100.;   INIMIX=   1;  MIXPRE=   1;  MAXMIX= -45

 Intra band minimization:
   WEIMIN = 0.0000     energy-eigenvalue tresh-hold
   EBREAK =  0.10E-07  absolut break condition
   DEPER  =   0.30     relativ break condition  

   TIME   =   0.40     timestep for ELM

  volume/ion in A,a.u.               =      17.04       115.02
  Fermi-wavevector in a.u.,A,eV,Ry     =   1.414747  2.673484 27.232174  2.001508
  Thomas-Fermi vector in A             =   2.536257
 
 Write flags
   LWAVE        =      F    write WAVECAR
   LDOWNSAMPLE  =      F    k-point downsampling of WAVECAR
   LCHARG       =      F    write CHGCAR
   LVTOT        =      F    write LOCPOT, total local potential
   LVHAR        =      F    write LOCPOT, Hartree potential only
   LELF         =      F    write electronic localiz. function (ELF)
   LORBIT       =      0    0 simple, 1 ext, 2 COOP (PROOUT), +10 PAW based schemes


 Dipole corrections
   LMONO  =      F    monopole corrections only (constant potential shift)
   LDIPOL =      F    correct potential (dipole corrections)
   IDIPOL =      0    1-x, 2-y, 3-z, 4-all directions 
   EPSILON=  1.0000000 bulk dielectric constant

 Exchange correlation treatment:
   GGA     =    PE    GGA type
   LEXCH   =     8    internal setting for exchange type
   VOSKOWN=      0    Vosko Wilk Nusair interpolation
   LHFCALC =     F    Hartree Fock is set to
   LHFONE  =     F    Hartree Fock one center treatment
   AEXX    =    0.0000 exact exchange contribution

 Linear response parameters
   LEPSILON=     F    determine dielectric tensor
   LRPA    =     F    only Hartree local field effects (RPA)
   LNABLA  =     F    use nabla operator in PAW spheres
   LVEL    =     F    velocity operator in full k-point grid
   LINTERFAST=   F  fast interpolation
   KINTER  =     0    interpolate to denser k-point grid
   CSHIFT  =0.1000    complex shift for real part using Kramers Kronig
   OMEGAMAX=  -1.0    maximum frequency
   DEG_THRESHOLD= 0.2000000E-02 threshold for treating states as degnerate
   RTIME   =   -0.100 relaxation time in fs
  (WPLASMAI=    0.000 imaginary part of plasma frequency in eV, 0.658/RTIME)
   DFIELD  = 0.0000000 0.0000000 0.0000000 field for delta impulse in time
 
 Orbital magnetization related:
   ORBITALMAG=     F  switch on orbital magnetization
   LCHIMAG   =     F  perturbation theory with respect to B field
   DQ        =  0.001000  dq finite difference perturbation B field
   LLRAUG    =     F  two centre corrections for induced B field



--------------------------------------------------------------------------------------------------------


 Static calculation
 charge density and potential will be updated during run
 non-spin polarized calculation
 Variant of blocked Davidson
 Davidson routine will perform the subspace rotation
 perform sub-space diagonalisation
    after iterative eigenvector-optimisation
 modified Broyden-mixing scheme, WC =      100.0
 initial mixing is a Kerker type mixing with AMIX =  0.4000 and BMIX =      1.0000
 Hartree-type preconditioning will be used
 using additional bands           13
 real space projection scheme for non local part
 use partial core corrections
 calculate Harris-corrections to forces 
   (improved forces if not selfconsistent)
 use gradient corrections 
 use of overlap-Matrix (Vanderbilt PP)
 Gauss-broadening in eV      SIGMA  =   0.02


--------------------------------------------------------------------------------------------------------


  energy-cutoff  :      600.00
  volume of cell :       34.09
      direct lattice vectors                 reciprocal lattice vectors
     3.155734316  0.599675484 -0.701986499     0.296945125  0.079738737 -0.021514253
    -0.758236990  2.779860728 -0.162320058    -0.076753053  0.335376732 -0.058541068
     0.086837300  0.648871474  3.603476546     0.054389950  0.030640934  0.270681627

  length of vectors
     3.288016849  2.885982813  3.662460665     0.308216703  0.348992321  0.277787107


 
 k-points in units of 2pi/SCALE and weight: read from INCAR                         
   0.00000000  0.00000000  0.00000000       0.001
   0.02969451  0.00797387 -0.00215143       0.002
   0.05938902  0.01594775 -0.00430285       0.002
   0.08908354  0.02392162 -0.00645428       0.002
   0.11877805  0.03189549 -0.00860570       0.002
   0.14847256  0.03986937 -0.01075713       0.001
  -0.00697755  0.03048879 -0.00532192       0.002
   0.02271696  0.03846267 -0.00747334       0.002
   0.05241147  0.04643654 -0.00962477       0.002
   0.08210599  0.05441041 -0.01177619       0.002
   0.11180050  0.06238429 -0.01392762       0.002
   0.14149501  0.07035816 -0.01607904       0.002
  -0.12575560 -0.00140670  0.00328379       0.002
  -0.09606109  0.00656717  0.00113236       0.002
  -0.06636658  0.01454105 -0.00101906       0.002
  -0.03667206  0.02251492 -0.00317049       0.002
  -0.01395510  0.06097759 -0.01064383       0.002
   0.01573941  0.06895146 -0.01279526       0.002
   0.04543392  0.07692533 -0.01494668       0.002
   0.07512844  0.08489921 -0.01709811       0.002
   0.10482295  0.09287308 -0.01924953       0.002
   0.13451746  0.10084696 -0.02140096       0.002
  -0.13273315  0.02908209 -0.00203813       0.002
  -0.10303864  0.03705597 -0.00418955       0.002
  -0.07334413  0.04502984 -0.00634098       0.002
  -0.04364961  0.05300371 -0.00849241       0.002
  -0.02093265  0.09146638 -0.01596575       0.002
   0.00876186  0.09944026 -0.01811717       0.002
   0.03845637  0.10741413 -0.02026860       0.002
   0.06815089  0.11538800 -0.02242002       0.002
   0.09784540  0.12336188 -0.02457145       0.002
   0.12753991  0.13133575 -0.02672287       0.002
  -0.13971070  0.05957089 -0.00736004       0.002
  -0.11001619  0.06754476 -0.00951147       0.002
  -0.08032168  0.07551863 -0.01166290       0.002
  -0.05062716  0.08349251 -0.01381432       0.002
  -0.02791020  0.12195518 -0.02128766       0.002
   0.00178431  0.12992905 -0.02343909       0.002
   0.03147882  0.13790292 -0.02559051       0.002
   0.06117334  0.14587680 -0.02774194       0.002
   0.09086785  0.15385067 -0.02989336       0.002
   0.12056236  0.16182454 -0.03204479       0.002
  -0.14668825  0.09005968 -0.01268196       0.002
  -0.11699374  0.09803355 -0.01483339       0.002
  -0.08729923  0.10600743 -0.01698481       0.002
  -0.05760471  0.11398130 -0.01913624       0.002
  -0.03488775  0.15244397 -0.02660958       0.002
  -0.00519324  0.16041784 -0.02876100       0.002
   0.02450127  0.16839172 -0.03091243       0.002
   0.05419579  0.17636559 -0.03306385       0.002
   0.08389030  0.18433946 -0.03521528       0.002
   0.11358481  0.19231334 -0.03736670       0.002
  -0.15366580  0.12054847 -0.01800388       0.002
  -0.12397129  0.12852235 -0.02015530       0.002
  -0.09427678  0.13649622 -0.02230673       0.002
  -0.06458226  0.14447010 -0.02445815       0.002
   0.00604333  0.00340455  0.03007574       0.002
   0.03573784  0.01137842  0.02792431       0.002
   0.06543235  0.01935230  0.02577289       0.002
   0.09512687  0.02732617  0.02362146       0.002
   0.12482138  0.03530004  0.02147004       0.002
   0.15451589  0.04327392  0.01931861       0.002
  -0.11273472 -0.02849095  0.03868144       0.002
  -0.08304021 -0.02051707  0.03653001       0.002
  -0.05334570 -0.01254320  0.03437859       0.002
  -0.02365118 -0.00456933  0.03222716       0.002
  -0.00093422  0.03389334  0.02475382       0.002
   0.02876029  0.04186722  0.02260240       0.002
   0.05845480  0.04984109  0.02045097       0.002
   0.08814931  0.05781496  0.01829955       0.002
   0.11784383  0.06578884  0.01614812       0.002
   0.14753834  0.07376271  0.01399669       0.002
  -0.11971227  0.00199785  0.03335952       0.002
  -0.09001776  0.00997172  0.03120810       0.002
  -0.06032325  0.01794559  0.02905667       0.002
  -0.03062873  0.02591947  0.02690525       0.002
  -0.00791177  0.06438214  0.01943191       0.002
   0.02178274  0.07235601  0.01728048       0.002
   0.05147725  0.08032988  0.01512906       0.002
   0.08117176  0.08830376  0.01297763       0.002
   0.11086628  0.09627763  0.01082620       0.002
   0.14056079  0.10425150  0.00867478       0.002
  -0.12668982  0.03248664  0.02803761       0.002
  -0.09699531  0.04046051  0.02588618       0.002
  -0.06730080  0.04843439  0.02373476       0.002
  -0.03760629  0.05640826  0.02158333       0.002
  -0.01488932  0.09487093  0.01410999       0.002
   0.01480519  0.10284480  0.01195857       0.002
   0.04449970  0.11081868  0.00980714       0.002
   0.07419421  0.11879255  0.00765571       0.002
   0.10388873  0.12676642  0.00550429       0.002
   0.13358324  0.13474030  0.00335286       0.002
  -0.13366737  0.06297543  0.02271569       0.002
  -0.10397286  0.07094931  0.02056427       0.002
  -0.07427835  0.07892318  0.01841284       0.002
  -0.04458384  0.08689706  0.01626142       0.002
  -0.02186687  0.12535972  0.00878808       0.002
   0.00782764  0.13333360  0.00663665       0.002
   0.03752215  0.14130747  0.00448522       0.002
   0.06721666  0.14928134  0.00233380       0.002
   0.09691118  0.15725522  0.00018237       0.002
   0.12660569  0.16522909 -0.00196905       0.002
  -0.14064492  0.09346423  0.01739378       0.002
  -0.11095041  0.10143810  0.01524235       0.002
  -0.08125590  0.10941198  0.01309093       0.002
  -0.05156139  0.11738585  0.01093950       0.002
  -0.02884442  0.15584852  0.00346616       0.002
   0.00085009  0.16382239  0.00131473       0.002
   0.03054460  0.17179626 -0.00083669       0.002
   0.06023911  0.17977014 -0.00298812       0.002
   0.08993363  0.18774401 -0.00513954       0.002
   0.11962814  0.19571789 -0.00729097       0.002
  -0.14762247  0.12395302  0.01207186       0.002
  -0.11792796  0.13192690  0.00992044       0.002
  -0.08823345  0.13990077  0.00776901       0.002
  -0.05853894  0.14787464  0.00561759       0.002
   0.04093108 -0.14903942  0.05668531       0.002
   0.07062559 -0.14106555  0.05453389       0.002
   0.10032010 -0.13309167  0.05238246       0.002
   0.13001462 -0.12511780  0.05023104       0.002
   0.15970913 -0.11714393  0.04807961       0.002
   0.18940364 -0.10917005  0.04592819       0.002
  -0.07784697 -0.18093492  0.06529101       0.002
  -0.04815246 -0.17296104  0.06313959       0.002
  -0.01845795 -0.16498717  0.06098816       0.002
   0.01123657 -0.15701329  0.05883674       0.002
   0.03395353 -0.11855063  0.05136340       0.002
   0.06364804 -0.11057675  0.04921197       0.002
   0.09334255 -0.10260288  0.04706055       0.002
   0.12303707 -0.09462901  0.04490912       0.002
   0.15273158 -0.08665513  0.04275770       0.002
   0.18242609 -0.07868126  0.04060627       0.002
  -0.08482452 -0.15044612  0.05996910       0.002
  -0.05513001 -0.14247225  0.05781767       0.002
  -0.02543550 -0.13449837  0.05566625       0.002
   0.00425902 -0.12652450  0.05351482       0.002
   0.02697598 -0.08806183  0.04604148       0.002
   0.05667049 -0.08008796  0.04389006       0.002
   0.08636500 -0.07211409  0.04173863       0.002
   0.11605952 -0.06414021  0.03958721       0.002
   0.14575403 -0.05616634  0.03743578       0.002
   0.17544854 -0.04819246  0.03528436       0.002
  -0.09180207 -0.11995733  0.05464718       0.002
  -0.06210756 -0.11198345  0.05249576       0.002
  -0.03241305 -0.10400958  0.05034433       0.002
  -0.00271853 -0.09603571  0.04819291       0.002
   0.01999843 -0.05757304  0.04071957       0.002
   0.04969294 -0.04959917  0.03856814       0.002
   0.07938745 -0.04162529  0.03641672       0.002
   0.10908197 -0.03365142  0.03426529       0.002
   0.13877648 -0.02567754  0.03211387       0.002
   0.16847099 -0.01770367  0.02996244       0.002
  -0.09877962 -0.08946853  0.04932527       0.002
  -0.06908511 -0.08149466  0.04717384       0.002
  -0.03939060 -0.07352079  0.04502242       0.002
  -0.00969608 -0.06554691  0.04287099       0.002
   0.01302088 -0.02708425  0.03539765       0.002
   0.04271539 -0.01911037  0.03324623       0.002
   0.07240990 -0.01113650  0.03109480       0.002
   0.10210442 -0.00316262  0.02894338       0.002
   0.13179893  0.00481125  0.02679195       0.002
   0.16149344  0.01278512  0.02464053       0.002
  -0.10575717 -0.05897974  0.04400335       0.002
  -0.07606266 -0.05100587  0.04185193       0.002
  -0.04636815 -0.04303199  0.03970050       0.002
  -0.01667363 -0.03505812  0.03754908       0.002
   0.01208666  0.00680910  0.06015147       0.002
   0.04178117  0.01478297  0.05800005       0.002
   0.07147568  0.02275684  0.05584862       0.002
   0.10117019  0.03073072  0.05369720       0.002
   0.13086471  0.03870459  0.05154577       0.002
   0.16055922  0.04667846  0.04939435       0.002
  -0.10669139 -0.02508640  0.06875717       0.002
  -0.07699688 -0.01711252  0.06660575       0.002
  -0.04730237 -0.00913865  0.06445432       0.002
  -0.01760786 -0.00116478  0.06230290       0.002
   0.00510911  0.03729789  0.05482956       0.002
   0.03480362  0.04527176  0.05267813       0.002
   0.06449813  0.05324564  0.05052671       0.002
   0.09419264  0.06121951  0.04837528       0.002
   0.12388716  0.06919338  0.04622386       0.002
   0.15358167  0.07716726  0.04407243       0.002
  -0.11366894  0.00540240  0.06343526       0.002
  -0.08397443  0.01337627  0.06128383       0.002
  -0.05427992  0.02135014  0.05913241       0.002
  -0.02458541  0.02932402  0.05698098       0.002
  -0.00186845  0.06778668  0.04950764       0.002
   0.02782607  0.07576056  0.04735622       0.002
   0.05752058  0.08373443  0.04520479       0.002
   0.08721509  0.09170831  0.04305337       0.002
   0.11690960  0.09968218  0.04090194       0.002
   0.14660412  0.10765605  0.03875052       0.002
  -0.12064649  0.03589119  0.05811334       0.002
  -0.09095198  0.04386506  0.05596192       0.002
  -0.06125747  0.05183894  0.05381049       0.002
  -0.03156296  0.05981281  0.05165907       0.002
  -0.00884600  0.09827548  0.04418573       0.002
   0.02084852  0.10624935  0.04203430       0.002
   0.05054303  0.11422323  0.03988288       0.002
   0.08023754  0.12219710  0.03773145       0.002
   0.10993205  0.13017097  0.03558003       0.002
   0.13962657  0.13814485  0.03342860       0.002
  -0.12762405  0.06637998  0.05279143       0.002
  -0.09792953  0.07435386  0.05064000       0.002
  -0.06823502  0.08232773  0.04848858       0.002
  -0.03854051  0.09030160  0.04633715       0.002
  -0.01582355  0.12876427  0.03886381       0.002
   0.01387097  0.13673815  0.03671239       0.002
   0.04356548  0.14471202  0.03456096       0.002
   0.07325999  0.15268589  0.03240954       0.002
   0.10295450  0.16065977  0.03025811       0.002
   0.13264902  0.16863364  0.02810669       0.002
  -0.13460160  0.09686878  0.04746951       0.002
  -0.10490708  0.10484265  0.04531809       0.002
  -0.07521257  0.11281652  0.04316666       0.002
  -0.04551806  0.12079040  0.04101524       0.002
  -0.02280110  0.15925307  0.03354190       0.002
   0.00689342  0.16722694  0.03139047       0.002
   0.03658793  0.17520081  0.02923905       0.002
   0.06628244  0.18317469  0.02708762       0.002
   0.09597695  0.19114856  0.02493620       0.002
   0.12567147  0.19912243  0.02278477       0.002
  -0.14157915  0.12735757  0.04214760       0.002
  -0.11188463  0.13533144  0.03999617       0.002
  -0.08219012  0.14330532  0.03784475       0.002
  -0.05249561  0.15127919  0.03569332       0.002
   0.04697441 -0.14563487  0.08676105       0.002
   0.07666892 -0.13766100  0.08460962       0.002
   0.10636343 -0.12968713  0.08245820       0.002
   0.13605794 -0.12171325  0.08030677       0.002
   0.16575246 -0.11373938  0.07815535       0.002
   0.19544697 -0.10576550  0.07600392       0.002
  -0.07180364 -0.17753037  0.09536675       0.002
  -0.04210913 -0.16955649  0.09321532       0.002
  -0.01241462 -0.16158262  0.09106390       0.002
   0.01727989 -0.15360875  0.08891247       0.002
   0.03999686 -0.11514608  0.08143913       0.002
   0.06969137 -0.10717221  0.07928771       0.002
   0.09938588 -0.09919833  0.07713628       0.002
   0.12908039 -0.09122446  0.07498486       0.002
   0.15877491 -0.08325058  0.07283343       0.002
   0.18846942 -0.07527671  0.07068201       0.002
  -0.07878119 -0.14704157  0.09004483       0.002
  -0.04908668 -0.13906770  0.08789341       0.002
  -0.01939217 -0.13109383  0.08574198       0.002
   0.01030234 -0.12311995  0.08359056       0.002
   0.03301931 -0.08465729  0.07611722       0.002
   0.06271382 -0.07668341  0.07396579       0.002
   0.09240833 -0.06870954  0.07181437       0.002
   0.12210284 -0.06073566  0.06966294       0.002
   0.15179736 -0.05276179  0.06751152       0.002
   0.18149187 -0.04478792  0.06536009       0.002
  -0.08575874 -0.11655278  0.08472292       0.002
  -0.05606423 -0.10857891  0.08257149       0.002
  -0.02636972 -0.10060503  0.08042007       0.002
   0.00332479 -0.09263116  0.07826864       0.002
   0.02604176 -0.05416849  0.07079530       0.002
   0.05573627 -0.04619462  0.06864388       0.002
   0.08543078 -0.03822074  0.06649245       0.002
   0.11512529 -0.03024687  0.06434103       0.002
   0.14481981 -0.02227300  0.06218960       0.002
   0.17451432 -0.01429912  0.06003818       0.002
  -0.09273629 -0.08606399  0.07940100       0.002
  -0.06304178 -0.07809011  0.07724958       0.002
  -0.03334727 -0.07011624  0.07509815       0.002
  -0.00365276 -0.06214236  0.07294673       0.002
   0.01906421 -0.02367970  0.06547339       0.002
   0.04875872 -0.01570582  0.06332196       0.002
   0.07845323 -0.00773195  0.06117054       0.002
   0.10814774  0.00024192  0.05901911       0.002
   0.13784226  0.00821580  0.05686769       0.002
   0.16753677  0.01618967  0.05471626       0.002
  -0.09971384 -0.05557519  0.07407909       0.002
  -0.07001933 -0.04760132  0.07192766       0.002
  -0.04032482 -0.03962744  0.06977624       0.002
  -0.01063031 -0.03165357  0.06762481       0.002
   0.01812998  0.01021364  0.09022721       0.002
   0.04782450  0.01818752  0.08807578       0.002
   0.07751901  0.02616139  0.08592436       0.002
   0.10721352  0.03413527  0.08377293       0.002
   0.13690803  0.04210914  0.08162151       0.002
   0.16660255  0.05008301  0.07947008       0.002
  -0.10064807 -0.02168185  0.09883291       0.002
  -0.07095355 -0.01370798  0.09668148       0.002
  -0.04125904 -0.00573410  0.09453006       0.002
  -0.01156453  0.00223977  0.09237863       0.002
   0.01115243  0.04070244  0.08490529       0.002
   0.04084695  0.04867631  0.08275387       0.002
   0.07054146  0.05665019  0.08060244       0.002
   0.10023597  0.06462406  0.07845102       0.002
   0.12993048  0.07259793  0.07629959       0.002
   0.15962500  0.08057181  0.07414817       0.002
  -0.10762562  0.00880694  0.09351099       0.002
  -0.07793110  0.01678082  0.09135957       0.002
  -0.04823659  0.02475469  0.08920814       0.002
  -0.01854208  0.03272856  0.08705672       0.002
   0.00417488  0.07119123  0.07958338       0.002
   0.03386940  0.07916511  0.07743195       0.002
   0.06356391  0.08713898  0.07528053       0.002
   0.09325842  0.09511285  0.07312910       0.002
   0.12295293  0.10308673  0.07097768       0.002
   0.15264745  0.11106060  0.06882625       0.002
  -0.11460317  0.03929574  0.08818908       0.002
  -0.08490865  0.04726961  0.08603765       0.002
  -0.05521414  0.05524348  0.08388623       0.002
  -0.02551963  0.06321736  0.08173480       0.002
  -0.00280267  0.10168003  0.07426146       0.002
   0.02689184  0.10965390  0.07211004       0.002
   0.05658636  0.11762777  0.06995861       0.002
   0.08628087  0.12560165  0.06780719       0.002
   0.11597538  0.13357552  0.06565576       0.002
   0.14566989  0.14154939  0.06350434       0.002
  -0.12158072  0.06978453  0.08286716       0.002
  -0.09188620  0.07775841  0.08071574       0.002
  -0.06219169  0.08573228  0.07856431       0.002
  -0.03249718  0.09370615  0.07641289       0.002
  -0.00978022  0.13216882  0.06893955       0.002
   0.01991429  0.14014269  0.06678812       0.002
   0.04960881  0.14811657  0.06463670       0.002
   0.07930332  0.15609044  0.06248527       0.002
   0.10899783  0.16406431  0.06033385       0.002
   0.13869234  0.17203819  0.05818242       0.002
  -0.12855827  0.10027333  0.07754525       0.002
  -0.09886376  0.10824720  0.07539382       0.002
  -0.06916924  0.11622107  0.07324240       0.002
  -0.03947473  0.12419495  0.07109097       0.002
  -0.01675777  0.16265761  0.06361763       0.002
   0.01293674  0.17063149  0.06146621       0.002
   0.04263126  0.17860536  0.05931478       0.002
[...]
     13       9.3486      0.00000
     14      11.6523      0.00000
     15      11.7752      0.00000
     16      16.2699      0.00000
     17      20.0558      0.00000
     18      22.5144      0.00000
     19      22.9445      0.00000
     20      24.2086      0.00000
     21      25.5575      0.00000
     22      27.1036      0.00000
     23      27.5441      0.00000
     24      28.6264      0.00000

 k-point   486 :      -0.1000   -0.1818    0.4444
  band No.  band energies     occupation 
      1      -0.2099      2.00000
      2       0.5157      2.00000
      3       1.2340      2.00000
      4       1.3988      2.00000
      5       1.5631      2.00000
      6       1.6296      2.00000
      7       1.9601      2.00000
      8       2.0568      2.00000
      9       2.1606      2.00000
     10       2.2494      2.00000
     11       2.4991      2.00000
     12       3.1206      2.00000
     13      11.4846      0.00000
     14      11.6065      0.00000
     15      14.0491      0.00000
     16      15.7734      0.00000
     17      17.4119      0.00000
     18      21.8307      0.00000
     19      23.3600      0.00000
     20      24.9376      0.00000
     21      25.5399      0.00000
     22      25.8369      0.00000
     23      26.3441      0.00000
     24      27.7250      0.00000

 k-point   487 :       0.0000   -0.0909    0.4444
  band No.  band energies     occupation 
      1      -0.6237      2.00000
      2       0.1099      2.00000
      3       1.2880      2.00000
      4       1.4691      2.00000
      5       1.6529      2.00000
      6       1.7228      2.00000
      7       2.0071      2.00000
      8       2.0289      2.00000
      9       2.1404      2.00000
     10       2.2001      2.00000
     11       2.2652      2.00000
     12       2.5378      2.00000
     13      13.2671      0.00000
     14      13.7017      0.00000
     15      14.4584      0.00000
     16      17.1802      0.00000
     17      18.2512      0.00000
     18      18.7035      0.00000
     19      21.9232      0.00000
     20      23.0429      0.00000
     21      23.9040      0.00000
     22      25.5256      0.00000
     23      26.1915      0.00000
     24      31.4040      0.00000

 k-point   488 :       0.1000   -0.0909    0.4444
  band No.  band energies     occupation 
      1      -0.3672      2.00000
      2       0.0284      2.00000
      3       1.3349      2.00000
      4       1.4384      2.00000
      5       1.5653      2.00000
      6       1.7312      2.00000
      7       1.9693      2.00000
      8       2.0600      2.00000
      9       2.0787      2.00000
     10       2.2621      2.00000
     11       2.3479      2.00000
     12       2.5718      2.00000
     13      10.9601      0.00000
     14      14.9340      0.00000
     15      15.0324      0.00000
     16      17.1421      0.00000
     17      18.2591      0.00000
     18      20.0026      0.00000
     19      21.4151      0.00000
     20      23.6633      0.00000
     21      23.9349      0.00000
     22      24.0061      0.00000
     23      25.4517      0.00000
     24      29.8908      0.00000

 k-point   489 :       0.2000   -0.0909    0.4444
  band No.  band energies     occupation 
      1       0.0331      2.00000
      2       0.0643      2.00000
      3       1.3924      2.00000
      4       1.4454      2.00000
      5       1.4819      2.00000
      6       1.7431      2.00000
      7       1.9210      2.00000
      8       2.0110      2.00000
      9       2.0498      2.00000
     10       2.3305      2.00000
     11       2.6270      2.00000
     12       2.7481      2.00000
     13       8.7504      0.00000
     14      12.8665      0.00000
     15      15.6760      0.00000
     16      18.3612      0.00000
     17      19.3840      0.00000
     18      20.7143      0.00000
     19      23.1511      0.00000
     20      23.1554      0.00000
     21      24.0697      0.00000
     22      24.5840      0.00000
     23      24.9261      0.00000
     24      28.6141      0.00000

 k-point   490 :       0.3000   -0.0909    0.4444
  band No.  band energies     occupation 
      1       0.1249      2.00000
      2       0.3776      2.00000
      3       1.4292      2.00000
      4       1.5634      2.00000
      5       1.6256      2.00000
      6       1.6632      2.00000
      7       1.9464      2.00000
      8       1.9757      2.00000
      9       2.1211      2.00000
     10       2.3890      2.00000
     11       3.0037      2.00000
     12       3.0046      2.00000
     13       6.8112      0.00000
     14      10.5899      0.00000
     15      16.6731      0.00000
     16      18.1470      0.00000
     17      19.6512      0.00000
     18      22.4435      0.00000
     19      23.4487      0.00000
     20      23.8938      0.00000
     21      24.4425      0.00000
     22      25.3826      0.00000
     23      26.4299      0.00000
     24      27.8218      0.00000

 k-point   491 :       0.4000   -0.0909    0.4444
  band No.  band energies     occupation 
      1       0.1292      2.00000
      2       0.5165      2.00000
      3       1.3845      2.00000
      4       1.5350      2.00000
      5       1.8355      2.00000
      6       1.9359      2.00000
      7       1.9853      2.00000
      8       1.9937      2.00000
      9       2.2536      2.00000
     10       2.4150      2.00000
     11       3.3725      2.00000
     12       3.6349      2.00000
     13       5.2536      0.00000
     14       8.6138      0.00000
     15      17.1211      0.00000
     16      17.9113      0.00000
     17      20.1589      0.00000
     18      23.0323      0.00000
     19      23.2487      0.00000
     20      23.7921      0.00000
     21      26.0859      0.00000
     22      26.4201      0.00000
     23      27.5363      0.00000
     24      27.5685      0.00000

 k-point   492 :       0.5000   -0.0909    0.4444
  band No.  band energies     occupation 
      1       0.0699      2.00000
      2       0.5555      2.00000
      3       1.3636      2.00000
      4       1.4885      2.00000
      5       1.9299      2.00000
      6       1.9561      2.00000
      7       2.0524      2.00000
      8       2.0815      2.00000
      9       2.3777      2.00000
     10       2.4106      2.00000
     11       3.4669      2.00000
     12       4.4962      0.00000
     13       4.7288      0.00000
     14       7.2046      0.00000
     15      16.0677      0.00000
     16      19.3628      0.00000
     17      21.0631      0.00000
     18      21.8575      0.00000
     19      23.1771      0.00000
     20      24.1071      0.00000
     21      27.0154      0.00000
     22      27.0593      0.00000
     23      28.0166      0.00000
     24      28.2780      0.00000

 k-point   493 :      -0.4000   -0.0909    0.4444
  band No.  band energies     occupation 
      1      -0.0601      2.00000
      2       0.5778      2.00000
      3       1.3836      2.00000
      4       1.4933      2.00000
      5       1.8749      2.00000
      6       1.8785      2.00000
      7       1.9869      2.00000
      8       2.0395      2.00000
      9       2.2990      2.00000
     10       2.4655      2.00000
     11       2.9796      2.00000
     12       4.5026      0.00000
     13       5.7484      0.00000
     14       7.4215      0.00000
     15      15.2215      0.00000
     16      20.7079      0.00000
     17      20.9823      0.00000
     18      21.9649      0.00000
     19      23.0343      0.00000
     20      24.9740      0.00000
     21      25.9942      0.00000
     22      26.1178      0.00000
     23      26.8662      0.00000
     24      29.0878      0.00000

 k-point   494 :      -0.3000   -0.0909    0.4444
  band No.  band energies     occupation 
      1      -0.2799      2.00000
      2       0.5856      2.00000
      3       1.4430      2.00000
      4       1.5370      2.00000
      5       1.5881      2.00000
      6       1.6649      2.00000
      7       1.9290      2.00000
      8       2.0552      2.00000
      9       2.2741      2.00000
     10       2.4075      2.00000
     11       2.7192      2.00000
     12       3.7454      1.99986
     13       7.3040      0.00000
     14       9.1086      0.00000
     15      14.6287      0.00000
     16      19.7870      0.00000
     17      22.2131      0.00000
     18      22.3558      0.00000
     19      22.7142      0.00000
     20      23.6852      0.00000
     21      25.4275      0.00000
     22      26.1203      0.00000
     23      26.9409      0.00000
     24      28.6510      0.00000

 k-point   495 :      -0.2000   -0.0909    0.4444
  band No.  band energies     occupation 
      1      -0.5278      2.00000
      2       0.5148      2.00000
      3       1.3744      2.00000
      4       1.4110      2.00000
      5       1.5829      2.00000
      6       1.6710      2.00000
      7       1.8671      2.00000
      8       2.1064      2.00000
      9       2.2468      2.00000
     10       2.2642      2.00000
     11       2.5287      2.00000
     12       3.1345      2.00000
     13       9.1914      0.00000
     14      11.2724      0.00000
     15      14.3018      0.00000
     16      19.0535      0.00000
     17      19.6046      0.00000
     18      22.3794      0.00000
     19      22.7076      0.00000
     20      23.9263      0.00000
     21      24.6377      0.00000
     22      26.9320      0.00000
     23      27.4510      0.00000
     24      27.7433      0.00000

 k-point   496 :      -0.1000   -0.0909    0.4444
  band No.  band energies     occupation 
      1      -0.6715      2.00000
      2       0.3126      2.00000
      3       1.2697      2.00000
      4       1.4207      2.00000
      5       1.6650      2.00000
      6       1.7855      2.00000
      7       1.8625      2.00000
      8       2.0362      2.00000
      9       2.2106      2.00000
     10       2.2168      2.00000
     11       2.3379      2.00000
     12       2.7455      2.00000
     13      11.3514      0.00000
     14      13.5196      0.00000
     15      14.2501      0.00000
     16      16.8956      0.00000
     17      18.5457      0.00000
     18      21.6361      0.00000
     19      22.3574      0.00000
     20      22.6136      0.00000
     21      23.9142      0.00000
     22      26.5775      0.00000
     23      27.9115      0.00000
     24      29.3331      0.00000


--------------------------------------------------------------------------------------------------------


 soft charge-density along one line, spin component           1
         0         1         2         3         4         5         6         7         8         9
 total charge-density along one line
 
 pseudopotential strength for first ion, spin component:           1
 -5.133  -0.022  -0.004   0.005   0.001  -3.049   0.017   0.003
 -0.022  -5.131   0.005  -0.002   0.004   0.017  -3.051  -0.004
 -0.004   0.005  -5.117  -0.005  -0.008   0.003  -0.004  -3.062
  0.005  -0.002  -0.005  -5.134  -0.019  -0.003   0.002   0.004
  0.001   0.004  -0.008  -0.019  -5.134  -0.001  -0.003   0.006
 -3.049   0.017   0.003  -0.003  -0.001   9.132  -0.012  -0.002
  0.017  -3.051  -0.004   0.002  -0.003  -0.012   9.133   0.003
  0.003  -0.004  -3.062   0.004   0.006  -0.002   0.003   9.141
 -0.003   0.002   0.004  -3.049   0.015   0.002  -0.001  -0.002
 -0.001  -0.003   0.006   0.015  -3.048   0.000   0.002  -0.005
 -0.000  -0.000  -0.001   0.005  -0.001   0.000  -0.000   0.001
 -0.000  -0.001  -0.002   0.009  -0.002   0.000  -0.000   0.001
  0.000  -0.000  -0.000  -0.000  -0.000   0.000   0.000   0.000
 -0.000   0.000  -0.000   0.000  -0.000  -0.000   0.000   0.000
  0.000  -0.000   0.000  -0.000  -0.000  -0.000  -0.000   0.000
  0.000  -0.000  -0.000   0.000  -0.000   0.000  -0.000   0.000
  0.000   0.000  -0.000   0.000   0.000  -0.000   0.000  -0.000
  0.000   0.000  -0.000  -0.000   0.000   0.000  -0.000   0.000
 total augmentation occupancy for first ion, spin component:           1
  1.919  -0.008  -0.005   0.003  -0.001  -0.034   0.007   0.003  -0.004  -0.002  -0.000   0.001   0.000   0.000   0.000   0.000
 -0.008   1.918   0.006  -0.005   0.008   0.007  -0.032  -0.004   0.002  -0.005  -0.005   0.001  -0.000   0.000   0.000   0.000
 -0.005   0.006   1.930   0.008  -0.009   0.003  -0.004  -0.042  -0.003   0.004   0.000   0.002   0.000   0.000  -0.000   0.000
  0.003  -0.005   0.008   1.904  -0.003  -0.004   0.003  -0.003  -0.025   0.006   0.029  -0.006   0.000   0.000   0.000   0.000
 -0.001   0.008  -0.009  -0.003   1.915  -0.002  -0.005   0.004   0.006  -0.033   0.004   0.001   0.000   0.000   0.000   0.000
 -0.034   0.007   0.003  -0.004  -0.002   0.007   0.001   0.000  -0.000   0.000  -0.002   0.000  -0.000   0.000   0.000  -0.000
  0.007  -0.032  -0.004   0.003  -0.005   0.001   0.007  -0.000  -0.000   0.000  -0.004   0.000   0.000   0.000   0.000   0.000
  0.003  -0.004  -0.042  -0.003   0.004   0.000  -0.000   0.006   0.000   0.000  -0.006   0.000   0.000  -0.000   0.000  -0.000
 -0.004   0.002  -0.003  -0.025   0.006  -0.000  -0.000   0.000   0.007   0.001   0.025  -0.001   0.000   0.000   0.000   0.000
 -0.002  -0.005   0.004   0.006  -0.033   0.000   0.000   0.000   0.001   0.007  -0.005   0.000  -0.000   0.000   0.000   0.000
 -0.000  -0.005   0.000   0.029   0.004  -0.002  -0.004  -0.006   0.025  -0.005   1.354  -0.093   0.000   0.000   0.000   0.000
  0.001   0.001   0.002  -0.006   0.001   0.000   0.000   0.000  -0.001   0.000  -0.093   0.010   0.000   0.000   0.000   0.000
  0.000  -0.000   0.000   0.000   0.000  -0.000   0.000   0.000   0.000  -0.000   0.000   0.000   0.124  -0.003  -0.001  -0.007
  0.000   0.000   0.000   0.000   0.000   0.000   0.000  -0.000   0.000   0.000   0.000   0.000  -0.003   0.115   0.019   0.000
  0.000   0.000  -0.000   0.000   0.000   0.000   0.000   0.000   0.000   0.000   0.000   0.000  -0.001   0.019   0.119   0.000
  0.000   0.000   0.000   0.000   0.000  -0.000   0.000  -0.000   0.000   0.000   0.000   0.000  -0.007   0.000   0.000   0.000
  0.000   0.000   0.000   0.000   0.000   0.000   0.000  -0.000   0.000   0.000  -0.000   0.000   0.000  -0.007  -0.001  -0.000
 -0.000   0.000   0.000   0.000   0.000   0.000   0.000   0.000   0.000   0.000   0.000   0.000   0.000  -0.001  -0.007  -0.000


------------------------ aborting loop because EDIFF is reached ----------------------------------------


    CHARGE:  cpu time    0.0943: real time    0.0942
    FORLOC:  cpu time    0.0019: real time    0.0019
    FORNL :  cpu time    0.6796: real time    0.6797
    STRESS:  cpu time    2.1253: real time    2.2122
    FORCOR:  cpu time    0.0132: real time    0.0135
    FORHAR:  cpu time    0.0073: real time    0.0078
    MIXING:  cpu time    0.0045: real time    0.0045
    OFIELD:  cpu time    0.0004: real time    0.0009

  FORCE on cell =-STRESS in cart. coord.  units (eV):
  Direction    XX          YY          ZZ          XY          YZ          ZX
  --------------------------------------------------------------------------------------
  Alpha Z    85.81459    85.81459    85.81459
  Ewald    -650.93045  -618.63774  -675.89886    -7.82947   -10.13871    89.58127
  Hartree   278.16522   299.71603   262.07307    -5.10216    -5.67846    55.04666
  E(xc)    -127.79740  -127.75789  -127.81963    -0.00601    -0.01241     0.08640
  Local      95.97031    42.65965   136.74685    12.84183    15.59901  -143.27496
  n-local   -50.34312   -50.48314   -50.49618    -0.02419    -0.09766     0.79945
  augment   188.63694   188.30568   188.83069     0.05357     0.09529    -0.81470
  Kinetic   176.89326   176.27982   177.16201     0.09593     0.10050    -0.84369
  Fock        0.00000     0.00000     0.00000     0.00000     0.00000     0.00000
  -------------------------------------------------------------------------------------
  Total      -3.59066    -4.10300    -3.58745     0.02951    -0.13244     0.58043
  in kB    -168.76162  -192.84190  -168.61067     1.38702    -6.22467    27.28020
  external pressure =     -176.74 kB  Pullay stress =        0.00 kB


 VOLUME and BASIS-vectors are now :
 -----------------------------------------------------------------------------
  energy-cutoff  :      600.00
  volume of cell :       34.09
      direct lattice vectors                 reciprocal lattice vectors
     3.155734316  0.599675484 -0.701986499     0.296945125  0.079738737 -0.021514253
    -0.758236990  2.779860728 -0.162320058    -0.076753053  0.335376732 -0.058541068
     0.086837300  0.648871474  3.603476546     0.054389950  0.030640934  0.270681627

  length of vectors
     3.288016849  2.885982813  3.662460665     0.308216703  0.348992321  0.277787107


 FORCES acting on ions
    electron-ion (+dipol)            ewald-force                    non-local-force                 convergence-correction
 -----------------------------------------------------------------------------------------------
   0.112E-07 0.246E-06 -.935E-06   -.169E-07 -.383E-06 0.145E-05   0.248E-23 0.000E+00 0.000E+00   0.119E-09 0.142E-09 -.286E-08
   0.642E-06 0.167E-06 -.250E-06   0.169E-07 0.383E-06 -.145E-05   0.247E-22 0.132E-22 0.662E-23   -.461E-09 -.240E-09 0.333E-08
 -----------------------------------------------------------------------------------------------
   0.654E-06 0.413E-06 -.119E-05   0.150E-14 0.107E-14 -.575E-15   0.272E-22 0.132E-22 0.662E-23   -.342E-09 -.979E-10 0.476E-09
 
 
 POSITION                                       TOTAL-FORCE (eV/Angst)
 -----------------------------------------------------------------------------------
      0.00000      0.00000      0.00000        -0.000000     -0.000000     -0.000000
      1.24217      2.01420      1.36959         0.000000      0.000000      0.000000
 -----------------------------------------------------------------------------------
    total drift:                                0.000001      0.000000     -0.000001


--------------------------------------------------------------------------------------------------------



  FREE ENERGIE OF THE ION-ELECTRON SYSTEM (eV)
  ---------------------------------------------------
  free  energy   TOTEN  =        -6.48938252 eV

  energy  without entropy=       -6.48928956  energy(sigma->0) =       -6.48933604
 


--------------------------------------------------------------------------------------------------------


    POTLOK:  cpu time    0.0258: real time    0.0262


--------------------------------------------------------------------------------------------------------


 stress matrix after NEB project (eV)
     -3.59066      0.02951      0.58043
      0.02951     -4.10300     -0.13244
      0.58043     -0.13244     -3.58745
  FORCES: max atom, RMS     0.000000    0.000000
  FORCE total and by dimension    0.000000    0.000000
  Stress total and by dimension    6.580871    4.103003
     LOOP+:  cpu time  134.5153: real time  135.3581
    4ORBIT:  cpu time    0.0000: real time    0.0000

 total amount of memory used by VASP MPI-rank0    33869. kBytes
=======================================================================

   base      :      30000. kBytes
   nonlr-proj:        537. kBytes
   fftplans  :        203. kBytes
   grid      :        258. kBytes
   one-center:         15. kBytes
   wavefun   :       2856. kBytes
 
  
  
 General timing and accounting informations for this job:
 ========================================================
  
                  Total CPU time used (sec):      139.362
                            User time (sec):      121.752
                          System time (sec):       17.610
                         Elapsed time (sec):      142.508
  
                   Maximum memory used (kb):       57464.
                   Average memory used (kb):           0.
  
                          Minor page faults:       155569
                          Major page faults:          107
                 Voluntary context switches:         7317
