  1.7339909e-04   9.6708201e-05
 -9.8958932e-02   6.0209335e-05
 -2.7009030e-05   1.2284069e-04
 -4.7329962e-02   1.2722847e-04
 -4.3264092e-05   1.0755436e-04
 -6.3806532e-05   1.3232866e-04
  3.0912349e-01   3.2118507e-04
  8.5392101e-05   1.2689640e-04
 -9.7385526e-02   2.1464836e-04
 -5.8175781e-05   1.1838334e-04
 -6.6607099e-05   1.1697045e-04
 -2.8269580e-05   1.2417462e-04
 -2.6715538e-04   1.7263836e-04
  2.3196577e-04   1.5889772e-04
  1.0233438e-03   3.9008487e-04
 -2.8971735e-01   2.8946184e-04
 -1.6350151e-04   1.2789421e-04
 -4.2977108e-06   1.2535675e-04
 -5.3410491e-05   9.8786753e-05
 -9.4538514e-04   4.3972643e-04
  1.0261236e-02   9.0839254e-04
  1.3318928e-03   3.6805272e-04
 -1.9927588e-01   1.8673060e-04
  7.7464683e-05   8.3694351e-05
 -1.2238316e-05   9.2901719e-05
  6.7835565e-05   1.1319213e-04
 -1.1021753e-03   4.9062329e-04
  1.3103268e-02   1.1208061e-03
  1.6239042e-04   1.4510003e-04
 -6.5014884e-03   2.6709455e-04
  1.2232643e-04   7.5235454e-05
 -2.1487378e-04   1.3551378e-04
  1.2633279e-04   9.1710644e-05
 -2.2717477e-04   1.5906572e-04
  8.5722102e-05   1.7034117e-04
 -7.2742485e-05   7.5147953e-05
  1.6504857e-05   1.3792150e-04
  1.8398214e-05   9.7304961e-05
  9.6983740e-07   8.6095701e-05
  2.6942917e-06   1.3864333e-04
  4.7259964e-05   8.8990651e-05
  9.3555747e-05   1.2520447e-04
 -1.9039464e-04   1.1042476e-04
 -4.1525062e-05   8.8183268e-05
 -1.9964949e-05   1.0281030e-04
 -1.4107936e-05   1.3414344e-04
 -1.5124169e-04   1.0451725e-04
 -7.2471608e-05   8.2823593e-05
  2.0488784e-05   8.6267079e-05
 -2.9573028e-05   8.8001594e-05
  2.4227772e-02   3.1302676e-05
 -1.4475784e-05   1.3988381e-04
 -1.0909960e-01   5.8545840e-05
 -4.1599549e-05   1.0179386e-04
  1.6370231e-04   8.2978760e-05
  4.3184766e-01   1.6498908e-04
  9.5168808e-03   3.2780910e-04
 -3.7633038e-01   1.3552776e-04
  9.1496586e-06   9.7002041e-05
  1.2421941e-04   1.1517465e-04
  1.4272947e-05   1.5105934e-04
 -1.7792325e-01   2.7823588e-04
  1.0144535e-01   5.4270471e-04
  1.5039068e-01   5.4084015e-04
 -7.8843009e-01   1.7465852e-04
 -1.1992610e-06   1.1114104e-04
  1.2284006e-06   1.2087089e-04
  3.4688496e-06   1.3085667e-04
 -1.2643310e-01   7.2378572e-04
  1.7005961e-01   4.8836292e-04
  1.7343827e-01   3.8985247e-04
 -8.9278024e-01   1.7402036e-04
  7.6972799e-05   1.1240209e-04
 -1.9004139e-05   1.1549259e-04
  3.1562911e-05   7.4426309e-05
 -1.1937039e-01   5.9195084e-04
  1.6639985e-01   6.5263384e-04
  1.3254586e-01   3.0020170e-04
 -3.1546667e-01   1.5606132e-04
 -2.4987232e-05   1.1267031e-04
  2.1602800e-04   1.4451033e-04
  4.5828328e-05   1.1474780e-04
 -1.7584998e-02   4.6247599e-04
  2.4244048e-02   5.2428892e-04
  1.2011008e-04   9.6922486e-05
 -2.7924215e-03   4.4717407e-04
  1.5850324e-04   1.7755645e-04
  3.3351083e-05   1.1224958e-04
  5.1825766e-05   1.0360976e-04
  7.8276016e-06   1.7486623e-04
 -9.2625705e-05   1.0077883e-04
 -3.0646985e-05   1.0493647e-04
 -3.5375910e-04   1.1929069e-04
  9.5335359e-05   9.4529481e-05
  8.6566419e-05   9.6800162e-05
  2.5612522e-05   9.1535396e-05
 -1.0051152e-04   9.7532022e-05
  9.4293719e-05   1.1327249e-04
  6.4058499e-05   1.2795172e-04
 -4.2842019e-01   8.4342559e-05
  8.8561719e-06   1.3170044e-04
 -8.8088706e-02   1.9309489e-04
  6.4132968e-05   1.3005844e-04
 -8.9526104e-05   1.5748950e-04
  1.5496603e-01   4.0914898e-04
  5.8896851e-05   1.2570080e-04
 -2.1297006e-02   2.6665415e-04
  4.8941329e-06   9.9917932e-05
 -1.2845446e-04   7.4945528e-05
 -5.0409349e-06   9.3589661e-05
  1.8401648e-05   9.3489281e-05
  2.4768131e-04   2.0707097e-04
  2.4565725e-04   1.8150322e-04
 -1.1668023e-01   3.6858319e-04
  4.0076979e-05   1.3309177e-04
  7.9245932e-05   1.1828641e-04
  2.4504265e-05   8.2324521e-05
 -9.0480171e-05   2.0288746e-04
  1.7879409e-04   1.6516029e-04
  8.3041181e-05   8.6845408e-05
 -9.1725916e-02   4.5981689e-04
 -3.1956530e-05   7.3119460e-05
 -5.0268678e-05   9.9938799e-05
  2.1100890e-04   9.6762546e-05
 -2.3329527e-05   1.6346024e-04
  4.7708830e-04   2.8328065e-04
 -3.1790907e-05   1.3231749e-04
 -1.1578108e-03   2.2208923e-04
 -2.4191027e-05   1.2066251e-04
 -8.3378029e-05   1.2151077e-04
 -8.0267862e-05   1.1481586e-04
 -1.4968597e-05   1.0048931e-04
  1.3091230e-04   1.3306113e-04
  2.0077292e-04   9.2788810e-05
 -7.0630253e-05   1.4755363e-04
  3.0962874e-05   1.3254912e-04
 -7.7227945e-05   7.9454308e-05
  1.1645268e-04   1.1779836e-04
 -1.7834426e-06   1.1238583e-04
  3.9512201e-05   1.4852917e-04
  7.0666014e-05   1.1516672e-04
  3.6702847e-06   1.2429703e-04
 -2.3067565e-04   1.3040639e-04
  6.9184629e-05   1.0031157e-04
  2.5954717e-04   1.3274008e-04
  1.3436505e-04   1.2496002e-04
 -1.2800352e-04   8.2333841e-05
  4.2446332e-05   1.2999852e-04
 -2.2989165e-05   1.1773256e-04
 -1.1829710e-04   1.2123695e-04
 -6.6552289e-05   8.6549197e-05
 -7.2494964e-05   9.9483615e-05
 -4.0036412e-05   9.2832022e-05
 -1.2156279e-05   1.1676671e-04
 -1.8764990e-07   1.5316313e-04
 -4.2002748e-06   1.0931878e-04
  5.5328204e-05   1.5417405e-04
 -1.6167969e-04   1.2091170e-04
 -7.7608413e-05   9.7317374e-05
 -6.8936803e-05   8.5232612e-05
 -4.6476369e-05   9.2937298e-05
  1.8290368e-05   1.6152050e-04
  2.7844331e-07   8.6662985e-05
  2.8005958e-05   1.2314325e-04
 -3.0357191e-05   9.2149276e-05
  2.2064673e-05   1.3405325e-04
 -1.0533823e-04   1.2233171e-04
 -7.3765797e-05   1.0597690e-04
 -4.5282806e-05   1.2007760e-04
 -1.5134012e-04   1.0285734e-04
  8.3412460e-06   1.0689081e-04
 -6.9589555e-06   1.3208062e-04
 -9.1571856e-06   1.3195715e-04
 -1.2594831e-04   1.0049628e-04
 -1.9909619e-04   8.8251065e-05
 -1.2657361e-04   8.9667534e-05
 -1.1813614e-04   1.3124404e-04
  8.4283172e-05   1.1398524e-04
  1.2802155e-04   1.2584419e-04
  5.8129237e-05   1.1835845e-04
  1.4664244e-04   1.2736989e-04
  1.0688465e-04   8.5409105e-05
 -1.8224398e-04   9.4656229e-05
 -1.1869712e-04   1.6999542e-04
  6.4111831e-05   8.6018772e-05
 -2.3990888e-06   1.0238279e-04
 -1.4476255e-04   1.0207192e-04
  2.8963033e-05   1.2273432e-04
  6.9643589e-05   1.6126265e-04
 -1.0046503e-04   1.0181638e-04
 -1.5456876e-04   1.3432352e-04
  2.4411456e-04   1.3233894e-04
  9.9509343e-06   1.2027019e-04
  2.3235611e-04   9.4526120e-05
  7.0968592e-05   7.9321107e-05
  4.9752016e-05   7.0838934e-05
  4.7943049e-05   1.2239676e-04
  5.4395761e-02   2.0624608e-05
 -1.7407235e-04   1.0954660e-04
  3.9529651e-01   4.1722058e-05
  1.5295827e-04   1.7520563e-04
  4.2282543e-05   9.8868462e-05
 -8.7675333e-01   4.9809194e-05
 -1.2330004e-01   1.9132302e-04
  2.3209609e-01   7.3099931e-05
  1.0595837e-05   1.3376010e-04
  4.0078430e-05   9.3730305e-05
  1.4004829e-04   1.2927577e-04
  1.3951278e-01   2.3453720e-04
 -1.9682972e-01   2.2122893e-04
 -2.9903007e-01   2.5209843e-04
  4.2027986e-01   1.2009481e-04
 -1.3152089e-04   9.3404429e-05
  1.1377920e-04   1.1221863e-04
  8.7989800e-05   1.1470448e-04
  3.4990290e-01   4.9295760e-04
 -4.0739995e-01   3.5589910e-04
 -2.5158915e-01   2.5711182e-04
  2.8837764e-01   1.5649307e-04
 -1.4925224e-04   1.5577854e-04
  1.6532945e-04   9.3457129e-05
 -1.1854849e-04   9.8872697e-05
  3.2986835e-01   3.8264255e-04
 -4.0254834e-01   3.5619637e-04
 -1.3494292e-01   1.4424944e-04
  1.5356353e-01   1.0187412e-04
  1.9352476e-05   1.1632734e-04
  1.0066046e-04   1.1487463e-04
  2.7411095e-05   8.1094397e-05
  1.4525293e-01   4.9677660e-04
 -1.6122589e-01   3.8941050e-04
  2.5489098e-05   1.1853752e-04
  1.0811076e-01   6.0988346e-04
 -2.9485904e-05   1.1071151e-04
  9.0999405e-05   1.0739521e-04
  4.6716668e-05   1.1658132e-04
  1.4472808e-05   8.3514031e-05
  2.4220522e-04   8.6352360e-05
 -6.0410036e-07   9.7094351e-05
  4.3933914e-04   2.2855680e-04
 -3.2548945e-05   6.2786545e-05
 -7.9982136e-05   9.5759111e-05
  7.1476875e-06   1.5748334e-04
  3.5039277e-05   1.1056101e-04
 -9.1690141e-05   1.1549202e-04
 -5.5193585e-05   1.2889240e-04
 -4.6242885e-03   2.2773043e-04
  6.5755528e-05   1.2720856e-04
  4.8969265e-05   1.5369906e-04
 -4.1555282e-05   9.2626193e-05
  1.9290335e-04   9.7677184e-05
 -8.2617415e-05   1.8844547e-04
  2.4881514e-05   8.1357502e-05
 -7.2900657e-05   1.6851909e-04
  1.3699736e-04   8.6982473e-05
  1.6965342e-04   1.0009559e-04
  7.0003975e-05   9.5900337e-05
  1.0208708e-04   1.2469922e-04
  2.0374951e-04   9.7619348e-05
  2.6341918e-04   9.9124620e-05
 -1.4507254e-04   1.5885994e-04
  2.6217016e-05   9.4585565e-05
 -4.3870223e-05   1.3035553e-04
 -1.2261607e-04   1.6264449e-04
 -7.0447764e-05   1.4465922e-04
 -9.1796675e-05   1.1341389e-04
  1.4708779e-05   1.1209372e-04
 -2.3269964e-05   1.1346667e-04
 -4.7509933e-05   1.1194974e-04
 -1.0353707e-04   1.0611042e-04
  4.9154663e-05   1.3927789e-04
  6.1089326e-05   1.2937545e-04
  1.4949464e-05   9.5123280e-05
  1.3736264e-04   1.6857135e-04
 -1.0233509e-04   9.5761468e-05
 -5.6742051e-06   1.1893286e-04
 -1.4353720e-04   8.4321240e-05
 -1.8571593e-06   1.1664629e-04
  1.2071637e-04   1.7690753e-04
 -1.1071406e-04   1.0024918e-04
 -8.9134330e-05   1.3944117e-04
  2.4326243e-04   9.5448675e-05
  2.0843092e-05   1.1972075e-04
 -4.1498301e-05   1.0501954e-04
  1.4927012e-05   1.2809440e-04
 -4.4801167e-05   1.2564896e-04
 -6.6540182e-05   1.3452749e-04
  2.4709656e-04   1.2905455e-04
 -3.7369195e-05   1.1239848e-04
  1.2394685e-04   1.6074014e-04
  1.4671802e-05   1.3199443e-04
  3.2050459e-05   1.1097617e-04
  3.2244589e-05   1.1130409e-04
  1.7104794e-05   1.2153666e-04
 -1.5817562e-06   1.0839110e-04
  4.0219602e-05   7.7055447e-05
 -1.7932694e-05   8.4994092e-05
  9.9845056e-05   8.4566134e-05
 -5.7409834e-05   1.1369984e-04
  5.3673659e-05   1.1299790e-04
 -7.4831325e-05   8.6201399e-05
 -1.0248338e-04   1.2001233e-04
  2.5191610e-05   8.9931164e-05
 -1.9894611e-05   1.4982582e-04
  8.9718189e-05   1.3533983e-04
 -1.2474440e-04   1.4689131e-04
 -4.4773053e-05   1.2595866e-04
 -1.6164084e-05   1.0294436e-04
 -2.1464747e-04   9.1292524e-05
  1.7097077e-04   1.0883935e-04
  1.9736274e-04   1.1781284e-04
 -2.1090284e-06   1.3920537e-04
 -1.8896766e-04   1.2290613e-04
  5.3698572e-05   1.0887790e-04
  2.8202034e-05   1.3282517e-04
 -2.7126152e-05   9.4695642e-05
  3.0164072e-06   1.4792163e-04
 -2.1327357e-04   1.1025158e-04
  4.8828108e-05   9.0706402e-05
  5.2785028e-05   9.2353803e-05
  1.4442306e-04   1.2537760e-04
 -3.8281578e-05   1.2326140e-04
 -1.4307168e-04   1.2924864e-04
 -5.4432472e-05   1.1022603e-04
  2.3895233e-04   1.0011328e-04
 -4.5314382e-06   1.1259034e-04
 -6.8750007e-05   1.2396589e-04
 -1.0861498e-04   7.7309844e-05
  1.3834322e-04   1.3884422e-04
  4.2212185e-05   9.6195465e-05
 -1.0901969e-04   9.8711214e-05
  1.3900790e-05   1.0491965e-04
  1.1778552e-04   1.2236991e-04
  2.3897950e-04   1.4502101e-04
  8.9343361e-05   1.0115559e-04
 -1.0555997e-04   1.4145620e-04
 -1.3194937e-04   9.9924400e-05
  4.6095865e-05   8.4184030e-05
  3.2264212e-05   1.3501935e-04
 -1.1846376e-04   8.1440085e-05
  1.6474087e-05   1.0045613e-04
 -1.0223011e-04   1.0827000e-04
  9.1427304e-05   9.5134943e-05
 -8.4494553e-05   1.8158088e-04
 -2.0505142e-05   9.8422650e-05
  6.8181231e-05   1.3145899e-04
 -9.3084927e-05   1.7184629e-04
 -1.7915046e-04   1.0377591e-04
 -3.5837420e-05   9.2138362e-05
  1.1322218e-04   1.0644855e-04
 -5.5580149e-05   1.2215447e-04
 -3.3950337e-06   1.0323841e-04
  2.8706887e-05   1.1060269e-04
  8.8108891e-06   1.3070377e-04
  6.8055728e-05   9.0666741e-05
 -7.1690562e-07   1.0627496e-04
 -2.0165591e-05   1.0406371e-04
  2.1549751e-05   1.0721787e-04
  1.1354809e-04   9.0969006e-05
  1.0428438e-04   9.5384879e-05
 -3.1045388e-04   9.1026785e-05
  3.9818560e-06   1.0047324e-04
 -4.2780703e-05   1.1440150e-04
  1.0965167e-04   1.1123958e-04
  1.6910721e-04   1.3137735e-04
 -2.5703734e-05   1.5043572e-04
  4.9845963e-05   8.7319437e-05
 -4.8167221e-05   9.7662443e-05
 -6.0078048e-05   1.0212200e-04
  2.1692105e-04   1.0308600e-04
  5.3728254e-05   1.2884238e-04
 -7.3819820e-06   1.2256308e-04
 -9.7484553e-05   1.0384625e-04
 -2.3866878e-05   1.2136392e-04
 -3.1082538e-05   1.3534093e-04
 -2.3701958e-05   9.1352151e-05
  1.7892455e-05   9.3207731e-05
  1.9971115e-04   1.3123115e-04
 -4.0072722e-05   8.8115099e-05
  1.2944458e-04   8.5357933e-05
  2.3360821e-05   1.0590356e-04
  2.1335088e-06   7.7580335e-05
 -6.4273576e-05   1.3854340e-04
  1.0699826e-04   1.3173310e-04
 -5.0263785e-05   1.0493660e-04
 -2.2542285e-06   8.2671162e-05
 -1.2243642e-04   1.5367349e-04
 -8.4913510e-05   1.0804327e-04
  9.8374012e-06   9.3185394e-05
 -2.1196425e-05   8.1524064e-05
 -1.1215689e-04   1.3467878e-04
 -4.1421452e-05   1.6421860e-04
  1.0473633e-04   1.2127933e-04
 -1.0623958e-04   1.3234309e-04
  5.2080206e-05   1.1288081e-04
  6.5259686e-05   1.1317215e-04
  1.2377178e-04   1.2234852e-04
 -2.2268377e-04   1.7435907e-04
  9.9349934e-05   9.8816432e-05
  1.5471152e-05   8.9869915e-05
 -3.9130347e-05   9.0863476e-05
  6.6109715e-05   9.4099109e-05
 -1.4101964e-04   1.0760705e-04
  5.7546345e-05   1.2330434e-04
  3.9005739e-05   1.4653959e-04
 -1.8156518e-06   1.1676519e-04
 -7.3963216e-05   1.3025929e-04
 -6.2774336e-05   9.3770068e-05
 -8.2278260e-05   1.0534175e-04
 -1.2415470e-04   9.8604600e-05
 -9.9602272e-05   1.3601207e-04
 -1.7165959e-05   1.2249585e-04
 -1.7164228e-05   1.2223347e-04
 -4.8847734e-05   1.1401312e-04
 -1.6980456e-06   1.0792822e-04
  5.8322017e-05   1.4283130e-04
 -2.9912349e-05   1.1189680e-04
 -1.5502717e-04   1.1179907e-04
  1.0974957e-04   1.0710466e-04
  9.3512950e-05   9.9418408e-05
  5.0359198e-05   1.4191658e-04
 -1.0176643e-04   1.0843436e-04
 -2.8483939e-05   1.2264641e-04
  4.6496287e-05   1.0567737e-04
  3.2876211e-05   1.4280666e-04
  4.7152342e-05   1.0841958e-04
 -1.1321979e-04   1.1876170e-04
  8.5123640e-05   8.5969594e-05
  1.6837576e-04   1.1474573e-04
  7.0256938e-05   8.6665437e-05
  1.5131636e-04   1.0657008e-04
  2.0052426e-04   8.4861851e-05
  7.0513255e-05   1.0103765e-04
 -6.3951142e-05   9.0693429e-05
 -1.6543730e-04   1.3540399e-04
  1.3866961e-04   1.1705564e-04
  9.8329489e-05   1.1288851e-04
 -1.4778900e-04   1.0629104e-04
  7.9702055e-05   1.3640180e-04
  5.2676798e-05   1.0779541e-04
 -8.5192769e-05   1.1752954e-04
 -9.6755641e-05   7.3055293e-05
 -4.0815215e-05   7.0683571e-05
  7.2007810e-05   8.0393133e-05
  3.4607932e-05   1.0917606e-04
  5.0852344e-05   8.6957902e-05
 -2.1175461e-05   8.6869004e-05
 -1.1704087e-04   1.3543529e-04
 -3.1221934e-05   1.2712007e-04
  7.1862094e-05   9.9593453e-05
  1.3340270e-04   9.6900483e-05
  6.4483807e-05   9.4628071e-05
  6.1144936e-05   1.3091986e-04
  1.5317980e-04   1.1227604e-04
 -3.4494591e-05   9.5306466e-05
  4.2647425e-06   1.2546217e-04
 -1.9129788e-04   1.0888011e-04
  7.2020463e-05   6.6550310e-05
 -9.1600399e-05   8.4896092e-05
 -1.4125121e-04   9.3623916e-05
  7.6275617e-05   9.4857925e-05
  3.2601787e-05   1.3562448e-04
  4.8352842e-05   1.6826537e-04
  4.2607866e-05   1.1533161e-04
  5.4067941e-06   1.0130183e-04
 -3.3635617e-05   9.2454691e-05
  2.1032666e-04   9.8420984e-05
 -6.7732588e-05   1.2845914e-04
  5.3506530e-05   9.9033663e-05
  2.7900915e-05   1.0170973e-04
 -7.2305513e-05   1.1177569e-04
 -1.1877573e-05   9.8721117e-05
  3.2370492e-05   1.1709696e-04
 -7.6439431e-07   1.5376970e-04
  1.9482497e-04   1.3524594e-04
  2.8503402e-05   8.0378755e-05
  7.7330747e-05   1.3484996e-04
  3.3881108e-04   1.4580924e-04
  5.9749902e-05   1.1866768e-04
  1.3722872e-05   1.1843086e-04
  6.9926155e-06   9.5953350e-05
 -2.2105834e-05   1.1250807e-04
  4.9054583e-05   1.4794045e-04
  3.3254688e-05   9.2243958e-05
 -8.4646155e-05   9.6289608e-05
  1.3825629e-04   1.1811425e-04
  5.3037198e-05   1.1035720e-04
 -8.2446286e-06   1.2233673e-04
 -4.0576662e-05   9.0182133e-05
  7.2846939e-05   8.5812695e-05
 -1.9789262e-04   9.2294344e-05
 -5.5519778e-02   5.6836999e-04
  2.5061056e-05   1.5994356e-04
  1.1482941e-04   1.0719943e-04
  5.4754063e-02   4.7914943e-04
 -3.9639588e-05   1.3324444e-04
  5.4635126e-05   1.3435284e-04
  7.0418391e-05   1.1483813e-04
 -3.1669468e-05   1.4295850e-04
 -9.9890144e-07   9.0805144e-05
 -5.6315637e-01   1.5857973e-04
 -1.0822803e+00   2.5321601e-04
 -3.9921325e-01   1.0303892e-04
  1.7913433e-05   1.3868399e-04
  1.8233709e+00   3.2756288e-04
 -3.1314135e-05   1.3117537e-04
 -1.0056526e-04   1.1212717e-04
 -1.0476611e-04   1.1448565e-04
 -6.4279993e-05   9.1543458e-05
 -1.3119391e-05   1.2936020e-04
  2.5115302e-04   1.2400019e-04
  2.8448247e-05   8.0566599e-05
  5.3374315e-05   1.1538255e-04
  2.3184701e-05   9.5071700e-05
  7.0990827e-05   1.0289101e-04
 -1.2352871e-04   1.1292117e-04
 -4.9766299e-05   1.1036401e-04
 -2.7418378e-04   1.5276848e-04
  2.2060191e-05   1.4544306e-04
  1.3209482e-04   1.2370208e-04
  1.9063214e-05   1.2802504e-04
 -4.6858183e-04   9.6595300e-05
  2.0954564e-04   1.2579082e-04
 -1.1063189e-04   1.2636243e-04
 -2.4655819e-05   1.0718998e-04
 -1.1000607e-04   1.4060180e-04
 -1.9785028e-04   1.1300572e-04
  1.5373503e-04   9.0817790e-05
  2.0765200e-04   9.7441181e-05
  9.9645695e-05   8.4192623e-05
 -4.1465981e-05   1.1190833e-04
  4.2380630e-05   1.3188507e-04
 -6.5783279e-05   1.1232985e-04
  9.6895455e-06   1.0810507e-04
 -1.7939579e-04   1.2197846e-04
 -2.9940277e-04   1.1761585e-04
 -1.7466901e-04   1.0497208e-04
  2.2921280e-04   1.3753233e-04
 -1.1735626e-04   1.2505539e-04
  1.9851523e-04   9.0768735e-05
 -1.1441088e-04   1.0635177e-04
  1.2367185e-04   8.4905667e-05
  7.4486044e-05   1.1954720e-04
 -1.3510808e-05   1.1352837e-04
  2.6760263e-05   1.3094362e-04
  9.3803993e-07   1.5209420e-04
 -7.9416255e-05   1.4454096e-04
  1.7151577e-04   1.1354833e-04
  8.7534492e-05   9.2280563e-05
 -1.2705440e-04   1.3074574e-04
  7.9187528e-05   7.8720703e-05
 -1.7850311e-05   9.4621202e-05
 -3.5217425e-05   1.0366039e-04
 -7.4254473e-05   1.0005032e-04
 -8.0793776e-05   1.0238845e-04
 -3.0444218e-05   1.2073798e-04
  7.3044583e-05   1.3833582e-04
 -7.7456752e-05   9.1611990e-05
 -9.8440221e-05   1.0137086e-04
 -1.2791103e-04   1.0695646e-04
 -1.0310226e-05   1.1153197e-04
 -3.1993994e-05   1.1222179e-04
  2.2723239e-05   1.2693329e-04
  1.7385608e-04   9.5469288e-05
 -1.3828355e-04   7.5154036e-05
  7.1049464e-05   1.3752688e-04
 -5.2351465e-05   9.5882868e-05
  1.0488129e-05   8.1034887e-05
 -9.7757700e-05   8.0946375e-05
 -5.3767100e-05   1.1137102e-04
 -1.2353518e-05   9.2653958e-05
 -3.5164237e-05   8.2327933e-05
  4.7256566e-05   1.1624857e-04
  6.5700748e-05   9.6932199e-05
 -2.5093123e-05   1.1879583e-04
  2.9074046e-05   9.2983879e-05
  2.0600937e-04   1.3457942e-04
 -6.8841662e-05   1.1372295e-04
  1.1279797e-04   1.2427593e-04
  2.0615059e-04   1.1379836e-04
  8.5006337e-05   1.2180705e-04
  1.4806501e-04   1.0002255e-04
  1.7064472e-04   8.4838073e-05
  6.5481720e-05   1.1449252e-04
 -1.9257537e-05   7.7402598e-05
 -2.4582676e-05   1.3266571e-04
 -1.2552831e-04   1.1146468e-04
  9.2927599e-05   1.1921144e-04
  1.4608978e-04   6.9020534e-05
  5.0184695e-05   9.4786323e-05
 -1.7621255e-06   1.0093764e-04
 -1.3048886e-04   8.9473746e-05
  1.2265916e-04   1.1468990e-04
 -3.1874288e-04   1.0289454e-04
  5.7721820e-05   1.2864538e-04
 -1.1994348e-04   1.0416186e-04
  2.0053671e-04   1.2402715e-04
  3.3010475e-04   1.2275871e-04
  2.8967813e-06   5.6019981e-05
 -5.6020686e-05   1.0357761e-04
  6.6886409e-05   1.3346614e-04
  2.3429020e-05   1.1276193e-04
  5.9551770e-05   9.5703268e-05
  2.9372144e-04   1.2341581e-04
  1.4647644e-04   1.0032337e-04
 -6.5096217e-05   7.5658427e-05
 -7.5177035e-05   1.1424693e-04
 -9.5191914e-05   1.0114716e-04
 -4.7365056e-06   9.6904412e-05
 -5.1775165e-05   1.1506506e-04
 -3.1815562e-05   7.7791541e-05
 -2.0976160e-05   9.5857678e-05
  4.6359335e-05   8.3717947e-05
 -7.5421602e-05   7.2221213e-05
 -9.0757407e-05   7.8706238e-05
 -1.5547872e-05   1.0908679e-04
 -2.0198911e-04   1.4817901e-04
 -2.2358951e-04   9.1961301e-05
 -9.9041114e-05   8.6361797e-05
  2.5819847e-04   1.2179871e-04
  5.3219992e-05   1.2198912e-04
  1.2909550e-04   1.3602449e-04
  2.3429492e-04   1.2563041e-04
  3.5735426e-05   9.7800628e-05
 -1.2817807e-04   1.2825178e-04
  2.7353304e-05   9.5677358e-05
  1.4015044e-04   1.1336241e-04
  1.0528469e-04   1.1225246e-04
  6.5565240e-05   8.0814956e-05
 -5.5612578e-05   1.6034686e-04
 -4.4604562e-06   1.2165836e-04
  4.6778809e-05   9.5002397e-05
 -2.1233280e-04   8.5051179e-05
 -1.3129513e-05   8.7889879e-05
 -1.3223196e-04   1.1689082e-04
 -1.3060760e-04   1.2929102e-04
 -1.1447544e-04   9.2634946e-05
 -1.7679018e-05   1.2454734e-04
 -1.1166945e-04   1.1535921e-04
  8.1004589e-05   7.5661475e-05
 -1.3529508e-04   1.0129633e-04
  7.4475596e-05   9.8947159e-05
  1.4852535e-04   1.3099343e-04
  1.9728763e-05   8.8186200e-05
 -1.3973623e-05   8.4534877e-05
  4.4856271e-05   1.2174409e-04
 -1.2340779e-04   1.1491660e-04
  1.7064534e-05   1.1618838e-04
 -2.6836776e-04   1.1401343e-04
  2.3501067e-05   1.0762141e-04
  2.2752618e-04   1.0325840e-04
 -2.3305458e-04   7.8698009e-05
  2.9648796e-05   1.1511413e-04
  3.1065250e-05   1.2629366e-04
 -1.0655393e-05   9.8770564e-05
 -8.2441125e-05   1.2358690e-04
 -2.1145746e-04   1.1989510e-04
  1.1947523e-05   1.1761163e-04
  8.1595164e-05   7.6048731e-05
  2.9402374e-05   9.0888432e-05
 -1.9025190e-05   1.0751227e-04
 -2.1411740e-04   1.2755150e-04
 -2.6958407e-04   1.3246882e-04
 -1.4290113e-04   1.2971826e-04
 -1.3065880e-05   1.0895059e-04
 -5.6762212e-05   8.9194386e-05
  1.8405417e-04   7.9220496e-05
 -1.6825282e-04   1.2577194e-04
 -1.3424511e-04   1.0685449e-04
  5.9492962e-05   1.2684769e-04
 -2.4375227e-05   1.1609967e-04
  1.0150574e-04   1.0049287e-04
 -7.2809860e-05   8.0323553e-05
 -5.4073284e-05   1.3673447e-04
 -1.1428694e-04   1.1282878e-04
  1.7104596e-05   1.5003055e-04
  2.0549071e-04   1.0456446e-04
 -1.4149591e-04   7.9831283e-05
  1.4179008e-05   1.0052472e-04
 -1.8993225e-05   1.4917612e-04
  1.7618305e-07   8.4478408e-05
 -1.1589099e-04   9.6384691e-05
  2.7153586e-04   1.1625433e-04
 -1.0149229e-04   9.9546669e-05
  1.5008965e-05   1.0349391e-04
 -3.8189846e-05   1.0231379e-04
  9.0728186e-05   1.1573102e-04
  5.9459395e-05   1.3504851e-04
 -4.1477047e-05   1.0191379e-04
 -1.0484421e-04   1.3106380e-04
  8.5147421e-06   1.2493374e-04
 -1.1870768e-05   1.2333589e-04
 -3.6089528e-05   1.5373525e-04
  6.7185152e-05   9.4708426e-05
 -6.6906825e-05   1.1322479e-04
 -4.6952151e-05   1.2478183e-04
 -1.3790859e-04   9.7540673e-05
 -8.5377978e-05   9.5647549e-05
  7.6269476e-05   9.9602403e-05
 -1.1437074e-04   9.7114804e-05
  9.2015573e-05   1.3256018e-04
 -6.7663706e-05   1.1716427e-04
  3.8311511e-05   1.2913148e-04
  1.2690805e-04   1.1408523e-04
  3.8018828e-05   7.9550198e-05
 -5.4691955e-05   1.2823717e-04
 -1.8798391e-05   1.0549011e-04
  5.7390105e-05   1.3847451e-04
  1.1730049e-04   1.1082159e-04
 -2.0316402e-04   1.0818979e-04
 -1.2187378e-04   1.0477501e-04
  7.6998636e-05   1.1765009e-04
 -7.1454720e-05   1.1339513e-04
  3.5776335e-05   1.3105640e-04
  4.5088080e-05   9.1433190e-05
  1.6514030e-05   9.0625996e-05
  4.3440941e-06   1.0048648e-04
 -7.3841920e-06   1.2795886e-04
  1.2561693e-04   1.2480382e-04
  8.5066677e-05   1.0916189e-04
 -1.1830102e-06   1.2018032e-04
  1.0490437e-04   1.0371416e-04
 -9.8385040e-05   1.3953069e-04
 -7.7653145e-05   1.4308181e-04
  1.1248776e-04   1.0261944e-04
 -2.0630861e-05   1.3038391e-04
 -3.5549556e-06   1.2157107e-04
 -2.6057045e-05   7.7895740e-05
 -2.5812744e-05   1.2261736e-04
  8.7386346e-05   1.1372259e-04
 -4.0225727e-06   7.3727359e-05
  2.2685252e-05   1.1859700e-04
 -2.8989415e-04   9.4876988e-05
 -6.4754255e-05   9.5092764e-05
 -5.1429964e-07   1.5074523e-04
 -6.8326663e-05   9.0125657e-05
 -1.2845559e-04   1.3952325e-04
 -1.1550384e-04   1.1683675e-04
 -2.8490531e-04   1.3155598e-04
  1.0432757e-04   1.1551069e-04
  1.2523319e-04   1.2442785e-04
  1.0629059e-04   8.9654015e-05
 -2.6996800e-05   1.1892732e-04
  1.9968337e-04   8.8092856e-05
  7.7078068e-05   1.2128273e-04
  1.6799870e-04   6.9862042e-05
 -5.0471634e-05   1.5577990e-04
  4.5159806e-05   1.2466221e-04
  7.3587580e-05   9.0685149e-05
 -3.0347546e-05   1.2372238e-04
  4.3563745e-05   1.4894656e-04
 -7.8975398e-05   1.1012302e-04
  5.9408867e-05   1.1227398e-04
  1.0649237e-05   9.8762524e-05
  2.2569844e-05   9.5598130e-05
 -4.9602721e-05   1.0504833e-04
 -2.6992770e-05   8.9065572e-05
 -5.2101335e-05   1.0313728e-04
  5.2629326e-05   1.3346210e-04
 -1.6054932e-05   1.0335511e-04
 -1.9944504e-04   1.1607863e-04
 -5.2057105e-05   1.0323799e-04
  1.9022645e-04   1.1440986e-04
 -4.9788618e-05   8.3164647e-05
 -1.6365231e-04   1.1159330e-04
  2.0179011e-04   1.2750199e-04
  1.1604032e-04   1.1515176e-04
  9.0907524e-05   1.2054689e-04
  2.3323539e-04   1.1863356e-04
 -9.8041610e-06   1.2619187e-04
 -1.7664806e-04   8.9659858e-05
 -6.7943372e-05   1.2578447e-04
 -1.2813133e-06   1.1662998e-04
  1.2714490e-04   9.7021664e-05
 -2.6921527e-05   1.2329291e-04
 -1.4954711e-04   1.0987452e-04
 -5.5949899e-05   1.1107897e-04
  3.6051886e-05   1.3638081e-04
  2.7871689e-05   9.8968339e-05
  5.2894848e-05   1.0075345e-04
  9.1697460e-05   1.3567455e-04
 -1.3280760e-04   1.0402229e-04
 -9.1901529e-05   8.9018118e-05
 -2.2300683e-05   1.4883517e-04
 -1.9347240e-04   9.7864686e-05
  1.1021705e-04   9.6692434e-05
 -1.0877608e-04   1.2160542e-04
  5.9683527e-05   7.2696923e-05
  1.4187694e-04   6.9936374e-05
 -1.0612424e-04   1.2181515e-04
  1.8586993e-04   9.4396491e-05
  7.2293704e-05   1.1808186e-04
 -9.4640214e-05   9.0008376e-05
 -6.9780413e-05   1.2039582e-04
 -2.1687215e-04   1.0648050e-04
 -9.5227668e-05   1.4021881e-04
  3.5631462e-04   9.6048047e-05
  9.7898170e-05   1.0635422e-04
  1.3962075e-04   1.1496428e-04
 -4.2858479e-05   1.1904645e-04
 -8.2222017e-05   1.3611997e-04
  1.6679638e-04   8.3227264e-05
  2.7929354e-05   1.0638151e-04
  1.4232354e-05   1.1439101e-04
 -6.3125852e-05   8.7018852e-05
  1.3939236e-04   1.0832304e-04
  8.6170521e-06   1.0169090e-04
 -8.4526160e-05   9.7037257e-05
 -1.6110696e-04   8.6038963e-05
 -3.8620747e-05   1.3418373e-04
  2.4154069e-04   1.3021381e-04
 -6.5416163e-05   1.1492177e-04
  1.3445180e-04   7.9367339e-05
  3.6192923e-05   1.1557189e-04
  5.0680643e-05   1.1518868e-04
 -9.5813884e-05   7.5776661e-05
  3.6580226e-05   8.9333582e-05
 -1.7199911e-04   1.1930066e-04
 -4.0192012e-05   1.2005943e-04
  2.1616397e-04   1.4112993e-04
 -2.6992906e-05   1.0388313e-04
 -1.6043233e-04   1.1072888e-04
 -2.2653140e-04   1.0866066e-04
 -4.6114183e-05   1.1238675e-04
  2.1035764e-04   1.2052841e-04
  2.2547123e-04   7.7622048e-05
 -2.2469198e-04   1.0215700e-04
 -1.5814789e-04   1.0199140e-04
  3.3316690e-05   9.9194229e-05
 -8.4584653e-06   1.3332786e-04
 -1.7151381e-04   1.0087165e-04
 -1.3532503e-04   1.1725743e-04
  1.1901080e-04   9.4953815e-05
  1.1225626e-04   9.8814176e-05
 -1.3218339e-05   9.3991475e-05
  2.5295620e-04   1.1255767e-04
 -2.9918185e-05   1.3449164e-04
 -1.1061256e-05   9.0767891e-05
  5.6693072e-05   1.1209764e-04
 -1.8180705e-05   1.0499750e-04
  1.3311880e-04   9.1352682e-05
  7.0454422e-05   1.0891675e-04
  2.9197494e-05   1.3826981e-04
  3.3492870e-05   1.4146209e-04
  3.1888778e-06   1.3065724e-04
 -1.4407082e-05   1.0101216e-04
  9.7445984e-05   1.3285172e-04
  9.3229864e-05   1.5176173e-04
  2.8819537e-05   9.5700874e-05
 -2.1976417e-04   9.0886599e-05
 -1.6562024e-04   1.1044990e-04
  2.0636655e-05   1.0964189e-04
 -2.5929181e-05   1.0359999e-04
  6.3831081e-05   7.0386603e-05
  1.9137179e-04   1.0661674e-04
 -2.3357963e-05   1.0932014e-04
 -9.0944095e-06   1.0230010e-04
 -7.0827758e-05   1.2807350e-04
  3.4629287e-05   8.7097782e-05
 -1.8833553e-04   1.3064523e-04
  1.0253806e-04   8.3843144e-05
 -1.7701670e-05   9.2205839e-05
  2.4340639e-04   1.1551136e-04
 -1.5969337e-05   1.5762940e-04
  5.7076733e-05   1.3922398e-04
  6.5690165e-06   1.0204966e-04
  2.0151975e-04   7.8895122e-05
 -1.9714792e-04   1.4901294e-04
  2.1930491e-04   1.1087087e-04
 -2.9190362e-05   8.4160143e-05
 -2.0120253e-06   8.2408042e-05
 -1.7837473e-04   1.0160414e-04
 -1.2267084e-04   1.4049889e-04
  6.3169202e-05   9.3508075e-05
 -1.2023227e-04   1.2430515e-04
 -3.2281372e-05   9.2334703e-05
  2.7733200e-05   1.0258784e-04
  5.9544353e-05   1.4336758e-04
  3.8877788e-05   9.4239891e-05
  3.6683596e-05   9.7818527e-05
  2.4725380e-04   1.1173248e-04
  9.4958181e-05   7.1194620e-05
  6.1115119e-05   1.3146580e-04
  3.9524279e-05   8.4194689e-05
 -1.3009062e-04   1.2524580e-04
 -1.3881421e-04   1.2215837e-04
  1.6993615e-04   9.2949645e-05
 -1.2461598e-04   1.3014134e-04
 -1.1201193e-04   1.0257938e-04
 -1.4513804e-04   1.1326575e-04
  8.0600723e-05   1.1047904e-04
  1.5520354e-04   1.1523312e-04
  5.6054101e-05   1.1178701e-04
 -6.0148592e-05   1.0162930e-04
 -3.0184789e-05   1.1412342e-04
 -8.1112867e-06   1.0172002e-04
  1.1990749e-04   1.4026994e-04
 -4.4238815e-05   1.2759354e-04
 -5.8049005e-05   1.2710935e-04
 -1.4826580e-04   1.2065065e-04
  1.6715865e-04   1.0591421e-04
  3.4432604e-05   1.0666812e-04
  1.1267557e-04   6.8141933e-05
 -1.2991657e-04   1.1461935e-04
  5.7560836e-05   1.0634648e-04
  1.3198941e-04   1.0632315e-04
  8.2801067e-05   1.1010024e-04
  4.1963340e-05   1.3804123e-04
  6.6688059e-05   1.0397160e-04
 -3.6475292e-05   1.1149902e-04
 -1.6497273e-04   1.0769035e-04
  1.0894961e-04   9.8776749e-05
  1.6629521e-04   1.6526796e-04
  7.8726909e-05   1.1580162e-04
  2.6551634e-04   9.5078918e-05
 -9.3766721e-05   7.5108939e-05
 -1.1889755e-05   7.6135897e-05
 -1.5076640e-04   9.6141142e-05
  1.3871663e-04   1.1832793e-04
 -7.7691082e-05   1.1630196e-04
 -1.2228476e-04   1.1553555e-04
 -2.7421609e-04   1.4522797e-04
  9.3232127e-05   7.8426412e-05
 -3.1835018e-05   1.3307371e-04
  1.1908164e-04   7.8845755e-05
 -5.1171955e-05   8.8583474e-05
  5.6740566e-05   1.2024504e-04
 -3.7083570e-05   1.2945150e-04
  1.2627232e-04   1.1853040e-04
 -7.2212490e-05   8.1223217e-05
  3.2474741e-04   7.2090828e-05
  1.5227539e-04   1.1733995e-04
  1.3012101e-04   1.4155243e-04
 -3.8338454e-05   9.3301904e-05
 -7.6137343e-07   1.2305017e-04
  4.1391701e-05   8.8168395e-05
  3.5485762e-05   1.1695697e-04